 vasp.5.4.4.18Apr17-6-g9f103f2a35 (build Sep 03 2019 17:22:03) complex          
  
 executed on             LinuxIFC date 2024.12.15  13:38:44
 serial version


--------------------------------------------------------------------------------------------------------


 INCAR:
 POTCAR:    PAW_PBE Si 05Jan2001                  
 POTCAR:    PAW_PBE Si 05Jan2001                  
   SHA256 =  79d9987ad8750f624c4d6acb2a16d13abf6a777132adc04dc6c8399be72b42bb Si
   COPYR  = (c) Copyright 05Jan2001 Georg Kresse                                
   COPYR  = This file is part of the software VASP. Any use, copying, and all ot
   COPYR  = If you do not have a valid VASP license, you may not use, copy or di
   VRHFIN =Si: s2p2                                                             
   LEXCH  = PE                                                                  
   EATOM  =   103.0669 eV,    7.5752 Ry                                         
                                                                                
   TITEL  = PAW_PBE Si 05Jan2001                                                
   LULTRA =        F    use ultrasoft PP ?                                      
   IUNSCR =        1    unscreen: 0-lin 1-nonlin 2-no                           
   RPACOR =    1.500    partial core radius                                     
   POMASS =   28.085; ZVAL   =    4.000    mass and valenz                      
   RCORE  =    1.900    outmost cutoff radius                                   
   RWIGS  =    2.480; RWIGS  =    1.312    wigner-seitz radius (au A)           
   ENMAX  =  245.345; ENMIN  =  184.009 eV                                      
   ICORE  =        2    local potential                                         
   LCOR   =        T    correct aug charges                                     
   LPAW   =        T    paw PP                                                  
   EAUG   =  322.069                                                            
   DEXC   =    0.000                                                            
   RMAX   =    1.950    core radius for proj-oper                               
   RAUG   =    1.300    factor for augmentation sphere                          
   RDEP   =    1.993    radius for radial grids                                 
   RDEPT  =    1.837    core radius for aug-charge                              
                                                                                
   Atomic configuration                                                         
    6 entries                                                                   
     n  l   j            E        occ.                                          
     1  0  0.50     -1785.8828   2.0000                                         
     2  0  0.50      -139.4969   2.0000                                         
     2  1  1.50       -95.5546   6.0000                                         
     3  0  0.50       -10.8127   2.0000                                         
     3  1  0.50        -4.0811   2.0000                                         
     3  2  1.50        -4.0817   0.0000                                         
   Description                                                                  
     l       E           TYP  RCUT    TYP  RCUT                                 
     0    -10.8127223     23  1.900                                             
     0     -7.6451159     23  1.900                                             
     1     -4.0811372     23  1.900                                             
     1      2.4879257     23  1.900                                             
     2     -4.0817478      7  1.900                                             
  local pseudopotential read in
  partial core-charges read in
  partial kinetic energy density read in
  atomic valenz-charges read in
  non local Contribution for L=           0  read in
    real space projection operators read in
  non local Contribution for L=           0  read in
    real space projection operators read in
  non local Contribution for L=           1  read in
    real space projection operators read in
  non local Contribution for L=           1  read in
    real space projection operators read in
    PAW grid and wavefunctions read in
 
   number of l-projection  operators is LMAX  =           4
   number of lm-projection operators is LMMAX =           8
 
  PAW_PBE Si 05Jan2001                  :
 energy of atom  1       EATOM= -103.0669
 kinetic energy error for atom=    0.0003 (will be added to EATOM!!)
 
 
 POSCAR: i2a=[Si] ; Si                           
  positions in direct lattice
  No initial velocities read in
 exchange correlation table for  LEXCH =        8
   RHO(1)=    0.500       N(1)  =     2000
   RHO(2)=  100.500       N(2)  =     4000
 


--------------------------------------------------------------------------------------------------------


 ion  position               nearest neighbor table
   1  0.875  0.875  0.875-   2 2.36   2 2.36   2 2.36   2 2.36
   2  0.125  0.125  0.125-   1 2.36   1 2.36   1 2.36   1 2.36
 
  LATTYP: Found a face centered cubic cell.
 ALAT       =     5.4437011529
  
  Lattice vectors:
  
 A1 = (   3.3335730000,   0.0000000000,   1.9246390000)
 A2 = (   1.1111910000,   3.1429240000,   1.9246390000)
 A3 = (   0.0000000000,   0.0000000000,   3.8492780000)


Analysis of symmetry for initial positions (statically):
=====================================================================
 Subroutine PRICEL returns:
 Original cell was already a primitive cell.
 

 Routine SETGRP: Setting up the symmetry group for a 
 face centered cubic supercell.


 Subroutine GETGRP returns: Found 48 space group operations
 (whereof 12 operations were pure point group operations)
 out of a pool of 48 trial point group operations.


The static configuration has the point symmetry D_3d.
 The point group associated with its full space group is O_h .


Analysis of symmetry for dynamics (positions and initial velocities):
=====================================================================
 Subroutine PRICEL returns:
 Original cell was already a primitive cell.
 

 Routine SETGRP: Setting up the symmetry group for a 
 face centered cubic supercell.


 Subroutine GETGRP returns: Found 48 space group operations
 (whereof 12 operations were pure point group operations)
 out of a pool of 48 trial point group operations.


The dynamic configuration has the point symmetry D_3d.
 The point group associated with its full space group is O_h .


 Subroutine INISYM returns: Found 48 space group operations
 (whereof 12 operations are pure point group operations),
 and found     1 'primitive' translations

 
 
 KPOINTS: k-points along high symmetry lines      
  interpolating k-points between supplied coordinates
  k-points in reciprocal lattice
Space group operators:
 irot       det(A)        alpha          n_x          n_y          n_z        tau_x        tau_y        tau_z
    1     1.000000     0.000000     1.000000     0.000000     0.000000     0.000000     0.000000     0.000000
    2    -1.000000     0.000000     1.000000     0.000000     0.000000     0.000000     0.000000     0.000000
    3     1.000000   120.000000    -0.471404    -0.333333    -0.816497     0.000000     0.000000     0.000000
    4    -1.000000   120.000000    -0.471404    -0.333333    -0.816497     0.000000     0.000000     0.000000
    5     1.000000   120.000000     0.471405     0.333333     0.816496     0.000000     0.000000     0.000000
    6    -1.000000   120.000000     0.471405     0.333333     0.816496     0.000000     0.000000     0.000000
    7     1.000000   180.000000     0.288675     0.816496    -0.500000     0.000000     0.000000     0.000000
    8    -1.000000   180.000000     0.288675     0.816496    -0.500000     0.000000     0.000000     0.000000
    9     1.000000   180.000000     0.577350    -0.816496     0.000000     0.000000     0.000000     0.000000
   10    -1.000000   180.000000     0.577350    -0.816496     0.000000     0.000000     0.000000     0.000000
   11     1.000000   180.000000     0.866025    -0.000000    -0.500000     0.000000     0.000000     0.000000
   12    -1.000000   180.000000     0.866025    -0.000000    -0.500000     0.000000     0.000000     0.000000
   13     1.000000    90.000000    -0.816497    -0.577350    -0.000000     0.500000     0.000000     0.000000
   14    -1.000000    90.000000    -0.816497    -0.577350    -0.000000     0.500000     0.000000     0.000000
   15     1.000000   180.000000     0.866025    -0.000000     0.500000     0.500000     0.000000     0.000000
   16    -1.000000   180.000000     0.866025    -0.000000     0.500000     0.500000     0.000000     0.000000
   17     1.000000    90.000000     0.408248    -0.577350     0.707107     0.500000     0.000000     0.000000
   18    -1.000000    90.000000     0.408248    -0.577350     0.707107     0.500000     0.000000     0.000000
   19     1.000000   180.000000     0.816497     0.577350     0.000000     0.000000     0.000000     0.500000
   20    -1.000000   180.000000     0.816497     0.577350     0.000000     0.000000     0.000000     0.500000
   21     1.000000   120.000000     0.942809    -0.333333     0.000000     0.000000     0.000000     0.500000
   22    -1.000000   120.000000     0.942809    -0.333333     0.000000     0.000000     0.000000     0.500000
   23     1.000000   120.000000     0.000000    -1.000000     0.000000     0.000000     0.000000     0.500000
   24    -1.000000   120.000000     0.000000    -1.000000     0.000000     0.000000     0.000000     0.500000
   25     1.000000    90.000000     0.816497     0.577350    -0.000000     0.000000     0.500000     0.000000
   26    -1.000000    90.000000     0.816497     0.577350    -0.000000     0.000000     0.500000     0.000000
   27     1.000000    90.000000     0.408249    -0.577350    -0.707107     0.000000     0.500000     0.000000
   28    -1.000000    90.000000     0.408249    -0.577350    -0.707107     0.000000     0.500000     0.000000
   29     1.000000   179.999999     0.288675     0.816496     0.500000     0.000000     0.500000     0.000000
   30    -1.000000   179.999999     0.288675     0.816496     0.500000     0.000000     0.500000     0.000000
   31     1.000000   120.000000     0.000000     1.000000     0.000000     0.500000     0.000000     0.000000
   32    -1.000000   120.000000     0.000000     1.000000     0.000000     0.500000     0.000000     0.000000
   33     1.000000   120.000000     0.471404     0.333333    -0.816497     0.500000     0.000000     0.000000
   34    -1.000000   120.000000     0.471404     0.333333    -0.816497     0.500000     0.000000     0.000000
   35     1.000000   180.000000    -0.408248     0.577350     0.707107     0.500000     0.000000     0.000000
   36    -1.000000   180.000000    -0.408248     0.577350     0.707107     0.500000     0.000000     0.000000
   37     1.000000    90.000000    -0.408249     0.577350    -0.707107     0.000000     0.000000     0.500000
   38    -1.000000    90.000000    -0.408249     0.577350    -0.707107     0.000000     0.000000     0.500000
   39     1.000000   180.000000    -0.000000     0.000000     1.000000     0.000000     0.000000     0.500000
   40    -1.000000   180.000000    -0.000000     0.000000     1.000000     0.000000     0.000000     0.500000
   41     1.000000    90.000000    -0.408248     0.577350     0.707107     0.000000     0.000000     0.500000
   42    -1.000000    90.000000    -0.408248     0.577350     0.707107     0.000000     0.000000     0.500000
   43     1.000000   120.000000    -0.942809     0.333333     0.000000     0.000000     0.500000     0.000000
   44    -1.000000   120.000000    -0.942809     0.333333     0.000000     0.000000     0.500000     0.000000
   45     1.000000   180.000000    -0.408248     0.577350    -0.707107     0.000000     0.500000     0.000000
   46    -1.000000   180.000000    -0.408248     0.577350    -0.707107     0.000000     0.500000     0.000000
   47     1.000000   120.000000    -0.471405    -0.333333     0.816496     0.000000     0.500000     0.000000
   48    -1.000000   120.000000    -0.471405    -0.333333     0.816496     0.000000     0.500000     0.000000


--------------------------------------------------------------------------------------------------------




 Dimension of arrays:
   k-points           NKPTS =   1408   k-points in BZ     NKDIM =   1408   number of bands    NBANDS=     12
   number of dos      NEDOS =    301   number of ions     NIONS =      2
   non local maximal  LDIM  =      4   non local SUM 2l+1 LMDIM =      8
   total plane-waves  NPLWV =  13824
   max r-space proj   IRMAX =      1   max aug-charges    IRDMAX=  11659
   dimension x,y,z NGX =    24 NGY =   24 NGZ =   24
   dimension x,y,z NGXF=    48 NGYF=   48 NGZF=   48
   support grid    NGXF=    48 NGYF=   48 NGZF=   48
   ions per type =               2
   NGX,Y,Z   is equivalent  to a cutoff of  10.37, 10.37, 10.37 a.u.
   NGXF,Y,Z  is equivalent  to a cutoff of  20.73, 20.73, 20.73 a.u.

 SYSTEM =  auto Fully inherited from the final st  
 POSCAR =  i2a=[Si] ; Si                           

 Startparameter for this run:
   NWRITE =      2    write-flag & timer
   PREC   = normal    normal or accurate (medium, high low for compatibility)
   ISTART =      0    job   : 0-new  1-cont  2-samecut
   ICHARG =      2    charge: 1-file 2-atom 10-const
   ISPIN  =      1    spin polarized calculation?
   LNONCOLLINEAR =      F non collinear calculations
   LSORBIT =      F    spin-orbit coupling
   INIWAV =      1    electr: 0-lowe 1-rand  2-diag
   LASPH  =      F    aspherical Exc in radial PAW
   METAGGA=      F    non-selfconsistent MetaGGA calc.

 Electronic Relaxation 1
   ENCUT  =  600.0 eV  44.10 Ry    6.64 a.u.   7.69  7.69  7.69*2*pi/ulx,y,z
   ENINI  =  600.0     initial cutoff
   ENAUG  =  700.0 eV  augmentation charge cutoff
   NELM   =     60;   NELMIN=  2; NELMDL= -5     # of ELM steps 
   EDIFF  = 0.1E-04   stopping-criterion for ELM
   LREAL  =      F    real-space projection
   NLSPLINE    = F    spline interpolate recip. space projectors
   LCOMPAT=      F    compatible to vasp.4.4
   GGA_COMPAT  = T    GGA compatible to vasp.4.4-vasp.4.6
   LMAXPAW     = -100 max onsite density
   LMAXMIX     =    2 max onsite mixed and CHGCAR
   VOSKOWN=      0    Vosko Wilk Nusair interpolation
   ROPT   =    0.00000
 Ionic relaxation
   EDIFFG = 0.1E-03   stopping-criterion for IOM
   NSW    =      0    number of steps for IOM
   NBLOCK =      1;   KBLOCK =      1    inner block; outer block 
   IBRION =     -1    ionic relax: 0-MD 1-quasi-New 2-CG
   NFREE  =      0    steps in history (QN), initial steepest desc. (CG)
   ISIF   =      2    stress and relaxation
   IWAVPR =      0    prediction:  0-non 1-charg 2-wave 3-comb
   ISYM   =      2    0-nonsym 1-usesym 2-fastsym
   LCORR  =      T    Harris-Foulkes like correction to forces

   POTIM  = 0.5000    time-step for ionic-motion
   TEIN   =    0.0    initial temperature
   TEBEG  =    0.0;   TEEND  =   0.0 temperature during run
   SMASS  =  -3.00    Nose mass-parameter (am)
   estimated Nose-frequenzy (Omega)   =  0.10E-29 period in steps =****** mass=  -0.339E-27a.u.
   SCALEE = 1.0000    scale energy and forces
   NPACO  =    256;   APACO  = 16.0  distance and # of slots for P.C.
   PSTRESS=    0.0 pullay stress

  Mass of Ions in am
   POMASS =  28.09
  Ionic Valenz
   ZVAL   =   4.00
  Atomic Wigner-Seitz radii
   RWIGS  =  -1.00
  virtual crystal weights 
   VCA    =   1.00
   NELECT =       8.0000    total number of electrons
   NUPDOWN=      -1.0000    fix difference up-down

 DOS related values:
   EMIN   =  10.00;   EMAX   =-10.00  energy-range for DOS
   EFERMI =   0.00
   ISMEAR =     0;   SIGMA  =   0.20  broadening in eV -4-tet -1-fermi 0-gaus

 Electronic relaxation 2 (details)
   IALGO  =     38    algorithm
   LDIAG  =      T    sub-space diagonalisation (order eigenvalues)
   LSUBROT=      F    optimize rotation matrix (better conditioning)
   TURBO    =      0    0=normal 1=particle mesh
   IRESTART =      0    0=no restart 2=restart with 2 vectors
   NREBOOT  =      0    no. of reboots
   NMIN     =      0    reboot dimension
   EREF     =   0.00    reference energy to select bands
   IMIX   =      4    mixing-type and parameters
     AMIX     =   0.40;   BMIX     =  1.00
     AMIX_MAG =   1.60;   BMIX_MAG =  1.00
     AMIN     =   0.10
     WC   =   100.;   INIMIX=   1;  MIXPRE=   1;  MAXMIX= -45

 Intra band minimization:
   WEIMIN = 0.0000     energy-eigenvalue tresh-hold
   EBREAK =  0.21E-06  absolut break condition
   DEPER  =   0.30     relativ break condition  

   TIME   =   0.40     timestep for ELM

  volume/ion in A,a.u.               =      20.16       136.08
  Fermi-wavevector in a.u.,A,eV,Ry     =   0.954766  1.804247 12.402783  0.911579
  Thomas-Fermi vector in A             =   2.083543
 
 Write flags
   LWAVE        =      T    write WAVECAR
   LDOWNSAMPLE  =      F    k-point downsampling of WAVECAR
   LCHARG       =      T    write CHGCAR
   LVTOT        =      F    write LOCPOT, total local potential
   LVHAR        =      F    write LOCPOT, Hartree potential only
   LELF         =      F    write electronic localiz. function (ELF)
   LORBIT       =     11    0 simple, 1 ext, 2 COOP (PROOUT), +10 PAW based schemes


 Dipole corrections
   LMONO  =      F    monopole corrections only (constant potential shift)
   LDIPOL =      F    correct potential (dipole corrections)
   IDIPOL =      0    1-x, 2-y, 3-z, 4-all directions 
   EPSILON=  1.0000000 bulk dielectric constant

 Exchange correlation treatment:
   GGA     =    --    GGA type
   LEXCH   =     8    internal setting for exchange type
   VOSKOWN=      0    Vosko Wilk Nusair interpolation
   LHFCALC =     F    Hartree Fock is set to
   LHFONE  =     F    Hartree Fock one center treatment
   AEXX    =    0.0000 exact exchange contribution

 Linear response parameters
   LEPSILON=     F    determine dielectric tensor
   LRPA    =     F    only Hartree local field effects (RPA)
   LNABLA  =     F    use nabla operator in PAW spheres
   LVEL    =     F    velocity operator in full k-point grid
   LINTERFAST=   F  fast interpolation
   KINTER  =     0    interpolate to denser k-point grid
   CSHIFT  =0.1000    complex shift for real part using Kramers Kronig
   OMEGAMAX=  -1.0    maximum frequency
   DEG_THRESHOLD= 0.2000000E-02 threshold for treating states as degnerate
   RTIME   =   -0.100 relaxation time in fs
  (WPLASMAI=    0.000 imaginary part of plasma frequency in eV, 0.658/RTIME)
   DFIELD  = 0.0000000 0.0000000 0.0000000 field for delta impulse in time
 
 Orbital magnetization related:
   ORBITALMAG=     F  switch on orbital magnetization
   LCHIMAG   =     F  perturbation theory with respect to B field
   DQ        =  0.001000  dq finite difference perturbation B field
   LLRAUG    =     F  two centre corrections for induced B field



--------------------------------------------------------------------------------------------------------


 Static calculation
 charge density and potential will be updated during run
 non-spin polarized calculation
 Variant of blocked Davidson
 Davidson routine will perform the subspace rotation
 perform sub-space diagonalisation
    after iterative eigenvector-optimisation
 modified Broyden-mixing scheme, WC =      100.0
 initial mixing is a Kerker type mixing with AMIX =  0.4000 and BMIX =      1.0000
 Hartree-type preconditioning will be used
 using additional bands            8
 reciprocal scheme for non local part
 use partial core corrections
 calculate Harris-corrections to forces 
   (improved forces if not selfconsistent)
 use gradient corrections 
 use of overlap-Matrix (Vanderbilt PP)
 Gauss-broadening in eV      SIGMA  =   0.20


--------------------------------------------------------------------------------------------------------


  energy-cutoff  :      600.00
  volume of cell :       40.33
      direct lattice vectors                 reciprocal lattice vectors
     3.333573000  0.000000000  1.924639000     0.299978432 -0.106058350  0.000000000
     1.111191000  3.142924000  1.924639000     0.000000000  0.318175050  0.000000000
     0.000000000  0.000000000  3.849278000    -0.149989216 -0.106058350  0.259788979

  length of vectors
     3.849278403  3.849279412  3.849278000     0.318175161  0.318175050  0.318175190


 
 k-points in units of 2pi/SCALE and weight: k-points along high symmetry lines      
   0.00000000  0.00000000  0.00000000       0.001
   0.00059051 -0.00083511  0.00102279       0.001
   0.00118102 -0.00167021  0.00204558       0.001
   0.00177153 -0.00250532  0.00306837       0.001
   0.00236203 -0.00334042  0.00409117       0.001
   0.00295254 -0.00417553  0.00511396       0.001
   0.00354305 -0.00501063  0.00613675       0.001
   0.00413356 -0.00584574  0.00715954       0.001
   0.00472407 -0.00668084  0.00818233       0.001
   0.00531458 -0.00751595  0.00920512       0.001
   0.00590509 -0.00835105  0.01022791       0.001
   0.00649560 -0.00918616  0.01125070       0.001
   0.00708610 -0.01002126  0.01227350       0.001
   0.00767661 -0.01085637  0.01329629       0.001
   0.00826712 -0.01169147  0.01431908       0.001
   0.00885763 -0.01252658  0.01534187       0.001
   0.00944814 -0.01336168  0.01636466       0.001
   0.01003865 -0.01419679  0.01738745       0.001
   0.01062916 -0.01503189  0.01841024       0.001
   0.01121967 -0.01586700  0.01943303       0.001
   0.01181017 -0.01670210  0.02045583       0.001
   0.01240068 -0.01753721  0.02147862       0.001
   0.01299119 -0.01837231  0.02250141       0.001
   0.01358170 -0.01920742  0.02352420       0.001
   0.01417221 -0.02004252  0.02454699       0.001
   0.01476272 -0.02087763  0.02556978       0.001
   0.01535323 -0.02171273  0.02659257       0.001
   0.01594374 -0.02254784  0.02761536       0.001
   0.01653424 -0.02338294  0.02863816       0.001
   0.01712475 -0.02421805  0.02966095       0.001
   0.01771526 -0.02505315  0.03068374       0.001
   0.01830577 -0.02588826  0.03170653       0.001
   0.01889628 -0.02672336  0.03272932       0.001
   0.01948679 -0.02755847  0.03375211       0.001
   0.02007730 -0.02839357  0.03477490       0.001
   0.02066781 -0.02922868  0.03579769       0.001
   0.02125831 -0.03006378  0.03682049       0.001
   0.02184882 -0.03089889  0.03784328       0.001
   0.02243933 -0.03173399  0.03886607       0.001
   0.02302984 -0.03256910  0.03988886       0.001
   0.02362035 -0.03340420  0.04091165       0.001
   0.02421086 -0.03423931  0.04193444       0.001
   0.02480137 -0.03507441  0.04295723       0.001
   0.02539188 -0.03590952  0.04398002       0.001
   0.02598238 -0.03674463  0.04500282       0.001
   0.02657289 -0.03757973  0.04602561       0.001
   0.02716340 -0.03841484  0.04704840       0.001
   0.02775391 -0.03924994  0.04807119       0.001
   0.02834442 -0.04008505  0.04909398       0.001
   0.02893493 -0.04092015  0.05011677       0.001
   0.02952544 -0.04175526  0.05113956       0.001
   0.03011594 -0.04259036  0.05216235       0.001
   0.03070645 -0.04342547  0.05318515       0.001
   0.03129696 -0.04426057  0.05420794       0.001
   0.03188747 -0.04509568  0.05523073       0.001
   0.03247798 -0.04593078  0.05625352       0.001
   0.03306849 -0.04676589  0.05727631       0.001
   0.03365900 -0.04760099  0.05829910       0.001
   0.03424951 -0.04843610  0.05932189       0.001
   0.03484001 -0.04927120  0.06034468       0.001
   0.03543052 -0.05010631  0.06136748       0.001
   0.03602103 -0.05094141  0.06239027       0.001
   0.03661154 -0.05177652  0.06341306       0.001
   0.03720205 -0.05261162  0.06443585       0.001
   0.03779256 -0.05344673  0.06545864       0.001
   0.03838307 -0.05428183  0.06648143       0.001
   0.03897358 -0.05511694  0.06750422       0.001
   0.03956408 -0.05595204  0.06852701       0.001
   0.04015459 -0.05678715  0.06954981       0.001
   0.04074510 -0.05762225  0.07057260       0.001
   0.04133561 -0.05845736  0.07159539       0.001
   0.04192612 -0.05929246  0.07261818       0.001
   0.04251663 -0.06012757  0.07364097       0.001
   0.04310714 -0.06096267  0.07466376       0.001
   0.04369765 -0.06179778  0.07568655       0.001
   0.04428815 -0.06263288  0.07670934       0.001
   0.04487866 -0.06346799  0.07773214       0.001
   0.04546917 -0.06430309  0.07875493       0.001
   0.04605968 -0.06513820  0.07977772       0.001
   0.04665019 -0.06597330  0.08080051       0.001
   0.04724070 -0.06680841  0.08182330       0.001
   0.04783121 -0.06764351  0.08284609       0.001
   0.04842172 -0.06847862  0.08386888       0.001
   0.04901222 -0.06931372  0.08489167       0.001
   0.04960273 -0.07014883  0.08591447       0.001
   0.05019324 -0.07098393  0.08693726       0.001
   0.05078375 -0.07181904  0.08796005       0.001
   0.05137426 -0.07265415  0.08898284       0.001
   0.05196477 -0.07348925  0.09000563       0.001
   0.05255528 -0.07432436  0.09102842       0.001
   0.05314579 -0.07515946  0.09205121       0.001
   0.05373629 -0.07599457  0.09307400       0.001
   0.05432680 -0.07682967  0.09409680       0.001
   0.05491731 -0.07766478  0.09511959       0.001
   0.05550782 -0.07849988  0.09614238       0.001
   0.05609833 -0.07933499  0.09716517       0.001
   0.05668884 -0.08017009  0.09818796       0.001
   0.05727935 -0.08100520  0.09921075       0.001
   0.05786985 -0.08184030  0.10023354       0.001
   0.05846036 -0.08267541  0.10125633       0.001
   0.05905087 -0.08351051  0.10227913       0.001
   0.05964138 -0.08434562  0.10330192       0.001
   0.06023189 -0.08518072  0.10432471       0.001
   0.06082240 -0.08601583  0.10534750       0.001
   0.06141291 -0.08685093  0.10637029       0.001
   0.06200342 -0.08768604  0.10739308       0.001
   0.06259392 -0.08852114  0.10841587       0.001
   0.06318443 -0.08935625  0.10943866       0.001
   0.06377494 -0.09019135  0.11046146       0.001
   0.06436545 -0.09102646  0.11148425       0.001
   0.06495596 -0.09186156  0.11250704       0.001
   0.06554647 -0.09269667  0.11352983       0.001
   0.06613698 -0.09353177  0.11455262       0.001
   0.06672749 -0.09436688  0.11557541       0.001
   0.06731799 -0.09520198  0.11659820       0.001
   0.06790850 -0.09603709  0.11762099       0.001
   0.06849901 -0.09687219  0.11864379       0.001
   0.06908952 -0.09770730  0.11966658       0.001
   0.06968003 -0.09854240  0.12068937       0.001
   0.07027054 -0.09937751  0.12171216       0.001
   0.07086105 -0.10021261  0.12273495       0.001
   0.07145156 -0.10104772  0.12375774       0.001
   0.07204206 -0.10188282  0.12478053       0.001
   0.07263257 -0.10271793  0.12580332       0.001
   0.07322308 -0.10355303  0.12682612       0.001
   0.07381359 -0.10438814  0.12784891       0.001
   0.07440410 -0.10522324  0.12887170       0.001
   0.07499461 -0.10605835  0.12989449       0.001
   0.07499461 -0.10605835  0.12989449       0.001
   0.07469935 -0.10564080  0.13040588       0.001
   0.07440410 -0.10522324  0.13091728       0.001
   0.07410884 -0.10480569  0.13142868       0.001
   0.07381359 -0.10438814  0.13194007       0.001
   0.07351834 -0.10397059  0.13245147       0.001
   0.07322308 -0.10355303  0.13296286       0.001
   0.07292783 -0.10313548  0.13347426       0.001
   0.07263257 -0.10271793  0.13398565       0.001
   0.07233732 -0.10230038  0.13449705       0.001
   0.07204206 -0.10188282  0.13500845       0.001
   0.07174681 -0.10146527  0.13551984       0.001
   0.07145156 -0.10104772  0.13603124       0.001
   0.07115630 -0.10063017  0.13654263       0.001
   0.07086105 -0.10021261  0.13705403       0.001
   0.07056579 -0.09979506  0.13756542       0.001
   0.07027054 -0.09937751  0.13807682       0.001
   0.06997528 -0.09895996  0.13858821       0.001
   0.06968003 -0.09854240  0.13909961       0.001
   0.06938478 -0.09812485  0.13961101       0.001
   0.06908952 -0.09770730  0.14012240       0.001
   0.06879427 -0.09728975  0.14063380       0.001
   0.06849901 -0.09687219  0.14114519       0.001
   0.06820376 -0.09645464  0.14165659       0.001
   0.06790850 -0.09603709  0.14216798       0.001
   0.06761325 -0.09561954  0.14267938       0.001
   0.06731799 -0.09520198  0.14319078       0.001
   0.06702274 -0.09478443  0.14370217       0.001
   0.06672749 -0.09436688  0.14421357       0.001
   0.06643223 -0.09394933  0.14472496       0.001
   0.06613698 -0.09353177  0.14523636       0.001
   0.06584172 -0.09311422  0.14574775       0.001
   0.06554647 -0.09269667  0.14625915       0.001
   0.06525121 -0.09227912  0.14677055       0.001
   0.06495596 -0.09186156  0.14728194       0.001
   0.06466071 -0.09144401  0.14779334       0.001
   0.06436545 -0.09102646  0.14830473       0.001
   0.06407020 -0.09060891  0.14881613       0.001
   0.06377494 -0.09019135  0.14932752       0.001
   0.06347969 -0.08977380  0.14983892       0.001
   0.06318443 -0.08935625  0.15035031       0.001
   0.06288918 -0.08893870  0.15086171       0.001
   0.06259392 -0.08852114  0.15137311       0.001
   0.06229867 -0.08810359  0.15188450       0.001
   0.06200342 -0.08768604  0.15239590       0.001
   0.06170816 -0.08726848  0.15290729       0.001
   0.06141291 -0.08685093  0.15341869       0.001
   0.06111765 -0.08643338  0.15393008       0.001
   0.06082240 -0.08601583  0.15444148       0.001
   0.06052714 -0.08559827  0.15495288       0.001
   0.06023189 -0.08518072  0.15546427       0.001
   0.05993664 -0.08476317  0.15597567       0.001
   0.05964138 -0.08434562  0.15648706       0.001
   0.05934613 -0.08392806  0.15699846       0.001
   0.05905087 -0.08351051  0.15750985       0.001
   0.05875562 -0.08309296  0.15802125       0.001
   0.05846036 -0.08267541  0.15853264       0.001
   0.05816511 -0.08225785  0.15904404       0.001
   0.05786985 -0.08184030  0.15955544       0.001
   0.05757460 -0.08142275  0.16006683       0.001
   0.05727935 -0.08100520  0.16057823       0.001
   0.05698409 -0.08058764  0.16108962       0.001
   0.05668884 -0.08017009  0.16160102       0.001
   0.05639358 -0.07975254  0.16211241       0.001
   0.05609833 -0.07933499  0.16262381       0.001
   0.05580307 -0.07891743  0.16313521       0.001
   0.05550782 -0.07849988  0.16364660       0.001
   0.05521257 -0.07808233  0.16415800       0.001
   0.05491731 -0.07766478  0.16466939       0.001
   0.05462206 -0.07724722  0.16518079       0.001
   0.05432680 -0.07682967  0.16569218       0.001
   0.05403155 -0.07641212  0.16620358       0.001
   0.05373629 -0.07599457  0.16671497       0.001
   0.05344104 -0.07557701  0.16722637       0.001
   0.05314579 -0.07515946  0.16773777       0.001
   0.05285053 -0.07474191  0.16824916       0.001
   0.05255528 -0.07432436  0.16876056       0.001
   0.05226002 -0.07390680  0.16927195       0.001
   0.05196477 -0.07348925  0.16978335       0.001
   0.05166951 -0.07307170  0.17029474       0.001
   0.05137426 -0.07265415  0.17080614       0.001
   0.05107900 -0.07223659  0.17131754       0.001
   0.05078375 -0.07181904  0.17182893       0.001
   0.05048850 -0.07140149  0.17234033       0.001
   0.05019324 -0.07098393  0.17285172       0.001
   0.04989799 -0.07056638  0.17336312       0.001
   0.04960273 -0.07014883  0.17387451       0.001
   0.04930748 -0.06973128  0.17438591       0.001
   0.04901222 -0.06931372  0.17489730       0.001
   0.04871697 -0.06889617  0.17540870       0.001
   0.04842172 -0.06847862  0.17592010       0.001
   0.04812646 -0.06806107  0.17643149       0.001
   0.04783121 -0.06764351  0.17694289       0.001
   0.04753595 -0.06722596  0.17745428       0.001
   0.04724070 -0.06680841  0.17796568       0.001
   0.04694544 -0.06639086  0.17847707       0.001
   0.04665019 -0.06597330  0.17898847       0.001
   0.04635493 -0.06555575  0.17949987       0.001
   0.04605968 -0.06513820  0.18001126       0.001
   0.04576443 -0.06472065  0.18052266       0.001
   0.04546917 -0.06430309  0.18103405       0.001
   0.04517392 -0.06388554  0.18154545       0.001
   0.04487866 -0.06346799  0.18205684       0.001
   0.04458341 -0.06305044  0.18256824       0.001
   0.04428815 -0.06263288  0.18307963       0.001
   0.04399290 -0.06221533  0.18359103       0.001
   0.04369765 -0.06179778  0.18410243       0.001
   0.04340239 -0.06138023  0.18461382       0.001
   0.04310714 -0.06096267  0.18512522       0.001
   0.04281188 -0.06054512  0.18563661       0.001
   0.04251663 -0.06012757  0.18614801       0.001
   0.04222137 -0.05971002  0.18665940       0.001
   0.04192612 -0.05929246  0.18717080       0.001
   0.04163087 -0.05887491  0.18768220       0.001
   0.04133561 -0.05845736  0.18819359       0.001
   0.04104036 -0.05803981  0.18870499       0.001
   0.04074510 -0.05762225  0.18921638       0.001
   0.04044985 -0.05720470  0.18972778       0.001
   0.04015459 -0.05678715  0.19023917       0.001
   0.03985934 -0.05636960  0.19075057       0.001
   0.03956408 -0.05595204  0.19126196       0.001
   0.03926883 -0.05553449  0.19177336       0.001
   0.03897358 -0.05511694  0.19228476       0.001
   0.03867832 -0.05469939  0.19279615       0.001
   0.03838307 -0.05428183  0.19330755       0.001
   0.03808781 -0.05386428  0.19381894       0.001
   0.03779256 -0.05344673  0.19433034       0.001
   0.03749730 -0.05302917  0.19484173       0.001
   0.03749730 -0.05302917  0.19484173       0.001
   0.03720205 -0.05261162  0.19484173       0.001
   0.03690680 -0.05219407  0.19484173       0.001
   0.03661154 -0.05177652  0.19484173       0.001
   0.03631629 -0.05135896  0.19484173       0.001
   0.03602103 -0.05094141  0.19484173       0.001
   0.03572578 -0.05052386  0.19484173       0.001
   0.03543052 -0.05010631  0.19484173       0.001
   0.03513527 -0.04968875  0.19484173       0.001
   0.03484001 -0.04927120  0.19484173       0.001
   0.03454476 -0.04885365  0.19484173       0.001
   0.03424951 -0.04843610  0.19484173       0.001
   0.03395425 -0.04801854  0.19484173       0.001
   0.03365900 -0.04760099  0.19484173       0.001
   0.03336374 -0.04718344  0.19484173       0.001
   0.03306849 -0.04676589  0.19484173       0.001
   0.03277323 -0.04634833  0.19484173       0.001
   0.03247798 -0.04593078  0.19484173       0.001
   0.03218273 -0.04551323  0.19484173       0.001
   0.03188747 -0.04509568  0.19484173       0.001
   0.03159222 -0.04467812  0.19484173       0.001
   0.03129696 -0.04426057  0.19484173       0.001
   0.03100171 -0.04384302  0.19484173       0.001
   0.03070645 -0.04342547  0.19484173       0.001
   0.03041120 -0.04300791  0.19484173       0.001
   0.03011594 -0.04259036  0.19484173       0.001
   0.02982069 -0.04217281  0.19484173       0.001
   0.02952544 -0.04175526  0.19484173       0.001
   0.02923018 -0.04133770  0.19484173       0.001
   0.02893493 -0.04092015  0.19484173       0.001
   0.02863967 -0.04050260  0.19484173       0.001
   0.02834442 -0.04008505  0.19484173       0.001
   0.02804916 -0.03966749  0.19484173       0.001
   0.02775391 -0.03924994  0.19484173       0.001
   0.02745866 -0.03883239  0.19484173       0.001
   0.02716340 -0.03841484  0.19484173       0.001
   0.02686815 -0.03799728  0.19484173       0.001
   0.02657289 -0.03757973  0.19484173       0.001
   0.02627764 -0.03716218  0.19484173       0.001
   0.02598238 -0.03674463  0.19484173       0.001
   0.02568713 -0.03632707  0.19484173       0.001
   0.02539188 -0.03590952  0.19484173       0.001
   0.02509662 -0.03549197  0.19484173       0.001
   0.02480137 -0.03507441  0.19484173       0.001
   0.02450611 -0.03465686  0.19484173       0.001
   0.02421086 -0.03423931  0.19484173       0.001
   0.02391560 -0.03382176  0.19484173       0.001
   0.02362035 -0.03340420  0.19484173       0.001
   0.02332509 -0.03298665  0.19484173       0.001
   0.02302984 -0.03256910  0.19484173       0.001
   0.02273459 -0.03215155  0.19484173       0.001
   0.02243933 -0.03173399  0.19484173       0.001
   0.02214408 -0.03131644  0.19484173       0.001
   0.02184882 -0.03089889  0.19484173       0.001
   0.02155357 -0.03048134  0.19484173       0.001
   0.02125831 -0.03006378  0.19484173       0.001
   0.02096306 -0.02964623  0.19484173       0.001
   0.02066781 -0.02922868  0.19484173       0.001
   0.02037255 -0.02881113  0.19484173       0.001
   0.02007730 -0.02839357  0.19484173       0.001
   0.01978204 -0.02797602  0.19484173       0.001
   0.01948679 -0.02755847  0.19484173       0.001
   0.01919153 -0.02714092  0.19484173       0.001
   0.01889628 -0.02672336  0.19484173       0.001
   0.01860102 -0.02630581  0.19484173       0.001
   0.01830577 -0.02588826  0.19484173       0.001
   0.01801052 -0.02547071  0.19484173       0.001
   0.01771526 -0.02505315  0.19484173       0.001
   0.01742001 -0.02463560  0.19484173       0.001
   0.01712475 -0.02421805  0.19484173       0.001
   0.01682950 -0.02380050  0.19484173       0.001
   0.01653424 -0.02338294  0.19484173       0.001
   0.01623899 -0.02296539  0.19484173       0.001
   0.01594374 -0.02254784  0.19484173       0.001
   0.01564848 -0.02213029  0.19484173       0.001
   0.01535323 -0.02171273  0.19484173       0.001
   0.01505797 -0.02129518  0.19484173       0.001
   0.01476272 -0.02087763  0.19484173       0.001
   0.01446746 -0.02046008  0.19484173       0.001
   0.01417221 -0.02004252  0.19484173       0.001
   0.01387696 -0.01962497  0.19484173       0.001
   0.01358170 -0.01920742  0.19484173       0.001
   0.01328645 -0.01878987  0.19484173       0.001
   0.01299119 -0.01837231  0.19484173       0.001
   0.01269594 -0.01795476  0.19484173       0.001
   0.01240068 -0.01753721  0.19484173       0.001
   0.01210543 -0.01711965  0.19484173       0.001
   0.01181017 -0.01670210  0.19484173       0.001
   0.01151492 -0.01628455  0.19484173       0.001
   0.01121967 -0.01586700  0.19484173       0.001
   0.01092441 -0.01544944  0.19484173       0.001
   0.01062916 -0.01503189  0.19484173       0.001
   0.01033390 -0.01461434  0.19484173       0.001
   0.01003865 -0.01419679  0.19484173       0.001
   0.00974339 -0.01377923  0.19484173       0.001
   0.00944814 -0.01336168  0.19484173       0.001
   0.00915289 -0.01294413  0.19484173       0.001
   0.00885763 -0.01252658  0.19484173       0.001
   0.00856238 -0.01210902  0.19484173       0.001
   0.00826712 -0.01169147  0.19484173       0.001
   0.00797187 -0.01127392  0.19484173       0.001
   0.00767661 -0.01085637  0.19484173       0.001
   0.00738136 -0.01043881  0.19484173       0.001
   0.00708610 -0.01002126  0.19484173       0.001
   0.00679085 -0.00960371  0.19484173       0.001
   0.00649560 -0.00918616  0.19484173       0.001
   0.00620034 -0.00876860  0.19484173       0.001
   0.00590509 -0.00835105  0.19484173       0.001
   0.00560983 -0.00793350  0.19484173       0.001
   0.00531458 -0.00751595  0.19484173       0.001
   0.00501932 -0.00709839  0.19484173       0.001
   0.00472407 -0.00668084  0.19484173       0.001
   0.00442882 -0.00626329  0.19484173       0.001
   0.00413356 -0.00584574  0.19484173       0.001
   0.00383831 -0.00542818  0.19484173       0.001
   0.00354305 -0.00501063  0.19484173       0.001
   0.00324780 -0.00459308  0.19484173       0.001
   0.00295254 -0.00417553  0.19484173       0.001
   0.00265729 -0.00375797  0.19484173       0.001
   0.00236203 -0.00334042  0.19484173       0.001
   0.00206678 -0.00292287  0.19484173       0.001
   0.00177153 -0.00250532  0.19484173       0.001
   0.00147627 -0.00208776  0.19484173       0.001
   0.00118102 -0.00167021  0.19484173       0.001
   0.00088576 -0.00125266  0.19484173       0.001
   0.00059051 -0.00083511  0.19484173       0.001
   0.00029525 -0.00041755  0.19484173       0.001
   0.00000000  0.00000000  0.19484173       0.001
   0.00000000  0.00000000  0.19484173       0.001
  -0.00000000  0.00000000  0.19330755       0.001
   0.00000000  0.00000000  0.19177336       0.001
   0.00000000  0.00000000  0.19023917       0.001
  -0.00000000  0.00000000  0.18870499       0.001
   0.00000000  0.00000000  0.18717080       0.001
  -0.00000000  0.00000000  0.18563661       0.001
  -0.00000000  0.00000000  0.18410243       0.001
   0.00000000  0.00000000  0.18256824       0.001
   0.00000000  0.00000000  0.18103405       0.001
  -0.00000000  0.00000000  0.17949987       0.001
   0.00000000  0.00000000  0.17796568       0.001
   0.00000000  0.00000000  0.17643149       0.001
  -0.00000000  0.00000000  0.17489730       0.001
   0.00000000  0.00000000  0.17336312       0.001
   0.00000000  0.00000000  0.17182893       0.001
  -0.00000000  0.00000000  0.17029474       0.001
   0.00000000  0.00000000  0.16876056       0.001
   0.00000000  0.00000000  0.16722637       0.001
  -0.00000000  0.00000000  0.16569218       0.001
   0.00000000  0.00000000  0.16415800       0.001
   0.00000000  0.00000000  0.16262381       0.001
  -0.00000000  0.00000000  0.16108962       0.001
  -0.00000000  0.00000000  0.15955544       0.001
   0.00000000  0.00000000  0.15802125       0.001
  -0.00000000  0.00000000  0.15648706       0.001
  -0.00000000  0.00000000  0.15495288       0.001
   0.00000000  0.00000000  0.15341869       0.001
  -0.00000000  0.00000000  0.15188450       0.001
   0.00000000  0.00000000  0.15035031       0.001
   0.00000000  0.00000000  0.14881613       0.001
  -0.00000000  0.00000000  0.14728194       0.001
  -0.00000000  0.00000000  0.14574775       0.001
   0.00000000  0.00000000  0.14421357       0.001
  -0.00000000  0.00000000  0.14267938       0.001
  -0.00000000  0.00000000  0.14114519       0.001
   0.00000000  0.00000000  0.13961101       0.001
   0.00000000  0.00000000  0.13807682       0.001
  -0.00000000  0.00000000  0.13654263       0.001
   0.00000000  0.00000000  0.13500845       0.001
  -0.00000000  0.00000000  0.13347426       0.001
  -0.00000000  0.00000000  0.13194007       0.001
   0.00000000 -0.00000000  0.13040588       0.001
  -0.00000000  0.00000000  0.12887170       0.001
  -0.00000000  0.00000000  0.12733751       0.001
   0.00000000 -0.00000000  0.12580332       0.001
   0.00000000  0.00000000  0.12426914       0.001
   0.00000000  0.00000000  0.12273495       0.001
  -0.00000000  0.00000000  0.12120076       0.001
  -0.00000000  0.00000000  0.11966658       0.001
   0.00000000  0.00000000  0.11813239       0.001
   0.00000000  0.00000000  0.11659820       0.001
  -0.00000000  0.00000000  0.11506402       0.001
  -0.00000000  0.00000000  0.11352983       0.001
   0.00000000  0.00000000  0.11199564       0.001
   0.00000000  0.00000000  0.11046146       0.001
  -0.00000000  0.00000000  0.10892727       0.001
   0.00000000  0.00000000  0.10739308       0.001
  -0.00000000  0.00000000  0.10585889       0.001
  -0.00000000  0.00000000  0.10432471       0.001
   0.00000000  0.00000000  0.10279052       0.001
  -0.00000000  0.00000000  0.10125633       0.001
  -0.00000000  0.00000000  0.09972215       0.001
   0.00000000  0.00000000  0.09818796       0.001
  -0.00000000  0.00000000  0.09665377       0.001
   0.00000000  0.00000000  0.09511959       0.001
   0.00000000  0.00000000  0.09358540       0.001
  -0.00000000  0.00000000  0.09205121       0.001
   0.00000000  0.00000000  0.09051703       0.001
   0.00000000  0.00000000  0.08898284       0.001
  -0.00000000  0.00000000  0.08744865       0.001
   0.00000000  0.00000000  0.08591447       0.001
   0.00000000  0.00000000  0.08438028       0.001
  -0.00000000  0.00000000  0.08284609       0.001
   0.00000000  0.00000000  0.08131190       0.001
  -0.00000000  0.00000000  0.07977772       0.001
  -0.00000000  0.00000000  0.07824353       0.001
   0.00000000  0.00000000  0.07670934       0.001
   0.00000000  0.00000000  0.07517516       0.001
  -0.00000000  0.00000000  0.07364097       0.001
   0.00000000  0.00000000  0.07210678       0.001
  -0.00000000  0.00000000  0.07057260       0.001
   0.00000000  0.00000000  0.06903841       0.001
   0.00000000  0.00000000  0.06750422       0.001
  -0.00000000  0.00000000  0.06597004       0.001
  -0.00000000  0.00000000  0.06443585       0.001
   0.00000000 -0.00000000  0.06290166       0.001
   0.00000000  0.00000000  0.06136748       0.001
  -0.00000000  0.00000000  0.05983329       0.001
  -0.00000000  0.00000000  0.05829910       0.001
  -0.00000000  0.00000000  0.05676491       0.001
   0.00000000  0.00000000  0.05523073       0.001
   0.00000000 -0.00000000  0.05369654       0.001
  -0.00000000  0.00000000  0.05216235       0.001
  -0.00000000  0.00000000  0.05062817       0.001
   0.00000000  0.00000000  0.04909398       0.001
   0.00000000  0.00000000  0.04755979       0.001
  -0.00000000  0.00000000  0.04602561       0.001
   0.00000000  0.00000000  0.04449142       0.001
   0.00000000  0.00000000  0.04295723       0.001
  -0.00000000  0.00000000  0.04142305       0.001
  -0.00000000  0.00000000  0.03988886       0.001
   0.00000000  0.00000000  0.03835467       0.001
  -0.00000000  0.00000000  0.03682049       0.001
  -0.00000000  0.00000000  0.03528630       0.001
   0.00000000  0.00000000  0.03375211       0.001
  -0.00000000  0.00000000  0.03221792       0.001
  -0.00000000  0.00000000  0.03068374       0.001
  -0.00000000  0.00000000  0.02914955       0.001
   0.00000000  0.00000000  0.02761536       0.001
   0.00000000  0.00000000  0.02608118       0.001
  -0.00000000  0.00000000  0.02454699       0.001
  -0.00000000  0.00000000  0.02301280       0.001
   0.00000000  0.00000000  0.02147862       0.001
  -0.00000000  0.00000000  0.01994443       0.001
   0.00000000  0.00000000  0.01841024       0.001
   0.00000000  0.00000000  0.01687606       0.001
  -0.00000000  0.00000000  0.01534187       0.001
  -0.00000000  0.00000000  0.01380768       0.001
  -0.00000000  0.00000000  0.01227350       0.001
   0.00000000  0.00000000  0.01073931       0.001
   0.00000000  0.00000000  0.00920512       0.001
  -0.00000000  0.00000000  0.00767093       0.001
  -0.00000000  0.00000000  0.00613675       0.001
   0.00000000  0.00000000  0.00460256       0.001
  -0.00000000  0.00000000  0.00306837       0.001
  -0.00000000  0.00000000  0.00153419       0.001
   0.00000000  0.00000000  0.00000000       0.001
   0.00000000  0.00000000  0.00000000       0.001
   0.00059051  0.00041755  0.00102279       0.001
   0.00118102  0.00083511  0.00204558       0.001
   0.00177153  0.00125266  0.00306837       0.001
   0.00236203  0.00167021  0.00409117       0.001
   0.00295254  0.00208776  0.00511396       0.001
   0.00354305  0.00250532  0.00613675       0.001
   0.00413356  0.00292287  0.00715954       0.001
   0.00472407  0.00334042  0.00818233       0.001
   0.00531458  0.00375797  0.00920512       0.001
   0.00590509  0.00417553  0.01022791       0.001
   0.00649560  0.00459308  0.01125070       0.001
   0.00708610  0.00501063  0.01227350       0.001
   0.00767661  0.00542818  0.01329629       0.001
   0.00826712  0.00584574  0.01431908       0.001
   0.00885763  0.00626329  0.01534187       0.001
   0.00944814  0.00668084  0.01636466       0.001
   0.01003865  0.00709839  0.01738745       0.001
   0.01062916  0.00751595  0.01841024       0.001
   0.01121967  0.00793350  0.01943303       0.001
   0.01181017  0.00835105  0.02045583       0.001
   0.01240068  0.00876860  0.02147862       0.001
   0.01299119  0.00918616  0.02250141       0.001
   0.01358170  0.00960371  0.02352420       0.001
   0.01417221  0.01002126  0.02454699       0.001
   0.01476272  0.01043881  0.02556978       0.001
   0.01535323  0.01085637  0.02659257       0.001
   0.01594374  0.01127392  0.02761536       0.001
   0.01653424  0.01169147  0.02863816       0.001
   0.01712475  0.01210902  0.02966095       0.001
   0.01771526  0.01252658  0.03068374       0.001
   0.01830577  0.01294413  0.03170653       0.001
   0.01889628  0.01336168  0.03272932       0.001
   0.01948679  0.01377923  0.03375211       0.001
   0.02007730  0.01419679  0.03477490       0.001
   0.02066781  0.01461434  0.03579769       0.001
   0.02125831  0.01503189  0.03682049       0.001
   0.02184882  0.01544944  0.03784328       0.001
   0.02243933  0.01586700  0.03886607       0.001
   0.02302984  0.01628455  0.03988886       0.001
   0.02362035  0.01670210  0.04091165       0.001
   0.02421086  0.01711965  0.04193444       0.001
   0.02480137  0.01753721  0.04295723       0.001
   0.02539188  0.01795476  0.04398002       0.001
   0.02598238  0.01837231  0.04500282       0.001
   0.02657289  0.01878987  0.04602561       0.001
   0.02716340  0.01920742  0.04704840       0.001
   0.02775391  0.01962497  0.04807119       0.001
   0.02834442  0.02004252  0.04909398       0.001
   0.02893493  0.02046008  0.05011677       0.001
   0.02952544  0.02087763  0.05113956       0.001
   0.03011594  0.02129518  0.05216235       0.001
   0.03070645  0.02171273  0.05318515       0.001
   0.03129696  0.02213029  0.05420794       0.001
   0.03188747  0.02254784  0.05523073       0.001
   0.03247798  0.02296539  0.05625352       0.001
   0.03306849  0.02338294  0.05727631       0.001
   0.03365900  0.02380050  0.05829910       0.001
   0.03424951  0.02421805  0.05932189       0.001
   0.03484001  0.02463560  0.06034468       0.001
   0.03543052  0.02505315  0.06136748       0.001
   0.03602103  0.02547071  0.06239027       0.001
   0.03661154  0.02588826  0.06341306       0.001
   0.03720205  0.02630581  0.06443585       0.001
   0.03779256  0.02672336  0.06545864       0.001
   0.03838307  0.02714092  0.06648143       0.001
   0.03897358  0.02755847  0.06750422       0.001
   0.03956408  0.02797602  0.06852701       0.001
   0.04015459  0.02839357  0.06954981       0.001
   0.04074510  0.02881113  0.07057260       0.001
   0.04133561  0.02922868  0.07159539       0.001
   0.04192612  0.02964623  0.07261818       0.001
   0.04251663  0.03006378  0.07364097       0.001
   0.04310714  0.03048134  0.07466376       0.001
   0.04369765  0.03089889  0.07568655       0.001
   0.04428815  0.03131644  0.07670934       0.001
   0.04487866  0.03173399  0.07773214       0.001
   0.04546917  0.03215155  0.07875493       0.001
   0.04605968  0.03256910  0.07977772       0.001
   0.04665019  0.03298665  0.08080051       0.001
   0.04724070  0.03340420  0.08182330       0.001
   0.04783121  0.03382176  0.08284609       0.001
   0.04842172  0.03423931  0.08386888       0.001
   0.04901222  0.03465686  0.08489167       0.001
   0.04960273  0.03507441  0.08591447       0.001
   0.05019324  0.03549197  0.08693726       0.001
   0.05078375  0.03590952  0.08796005       0.001
   0.05137426  0.03632707  0.08898284       0.001
   0.05196477  0.03674463  0.09000563       0.001
   0.05255528  0.03716218  0.09102842       0.001
   0.05314579  0.03757973  0.09205121       0.001
   0.05373629  0.03799728  0.09307400       0.001
   0.05432680  0.03841484  0.09409680       0.001
   0.05491731  0.03883239  0.09511959       0.001
   0.05550782  0.03924994  0.09614238       0.001
   0.05609833  0.03966749  0.09716517       0.001
   0.05668884  0.04008505  0.09818796       0.001
   0.05727935  0.04050260  0.09921075       0.001
   0.05786985  0.04092015  0.10023354       0.001
   0.05846036  0.04133770  0.10125633       0.001
   0.05905087  0.04175526  0.10227913       0.001
   0.05964138  0.04217281  0.10330192       0.001
   0.06023189  0.04259036  0.10432471       0.001
   0.06082240  0.04300791  0.10534750       0.001
   0.06141291  0.04342547  0.10637029       0.001
   0.06200342  0.04384302  0.10739308       0.001
   0.06259392  0.04426057  0.10841587       0.001
   0.06318443  0.04467812  0.10943866       0.001
   0.06377494  0.04509568  0.11046146       0.001
   0.06436545  0.04551323  0.11148425       0.001
   0.06495596  0.04593078  0.11250704       0.001
   0.06554647  0.04634833  0.11352983       0.001
   0.06613698  0.04676589  0.11455262       0.001
   0.06672749  0.04718344  0.11557541       0.001
   0.06731799  0.04760099  0.11659820       0.001
   0.06790850  0.04801854  0.11762099       0.001
   0.06849901  0.04843610  0.11864379       0.001
   0.06908952  0.04885365  0.11966658       0.001
   0.06968003  0.04927120  0.12068937       0.001
   0.07027054  0.04968875  0.12171216       0.001
   0.07086105  0.05010631  0.12273495       0.001
   0.07145156  0.05052386  0.12375774       0.001
   0.07204206  0.05094141  0.12478053       0.001
   0.07263257  0.05135896  0.12580332       0.001
   0.07322308  0.05177652  0.12682612       0.001
   0.07381359  0.05219407  0.12784891       0.001
   0.07440410  0.05261162  0.12887170       0.001
   0.07499461  0.05302917  0.12989449       0.001
   0.07499461  0.05302917  0.12989449       0.001
   0.07514224  0.05219407  0.13015019       0.001
   0.07528986  0.05135896  0.13040588       0.001
   0.07543749  0.05052386  0.13066158       0.001
   0.07558512  0.04968875  0.13091728       0.001
   0.07573274  0.04885365  0.13117298       0.001
   0.07588037  0.04801854  0.13142868       0.001
   0.07602800  0.04718344  0.13168437       0.001
   0.07617563  0.04634833  0.13194007       0.001
   0.07632325  0.04551323  0.13219577       0.001
   0.07647088  0.04467812  0.13245147       0.001
   0.07661851  0.04384302  0.13270717       0.001
   0.07676613  0.04300791  0.13296286       0.001
   0.07691376  0.04217281  0.13321856       0.001
   0.07706139  0.04133770  0.13347426       0.001
   0.07720902  0.04050260  0.13372996       0.001
   0.07735664  0.03966749  0.13398565       0.001
   0.07750427  0.03883239  0.13424135       0.001
   0.07765190  0.03799728  0.13449705       0.001
   0.07779952  0.03716218  0.13475275       0.001
   0.07794715  0.03632707  0.13500845       0.001
   0.07809478  0.03549197  0.13526414       0.001
   0.07824241  0.03465686  0.13551984       0.001
   0.07839003  0.03382176  0.13577554       0.001
   0.07853766  0.03298665  0.13603124       0.001
   0.07868529  0.03215155  0.13628693       0.001
   0.07883291  0.03131644  0.13654263       0.001
   0.07898054  0.03048134  0.13679833       0.001
   0.07912817  0.02964623  0.13705403       0.001
   0.07927580  0.02881113  0.13730973       0.001
   0.07942342  0.02797602  0.13756542       0.001
   0.07957105  0.02714092  0.13782112       0.001
   0.07971868  0.02630581  0.13807682       0.001
   0.07986630  0.02547071  0.13833252       0.001
   0.08001393  0.02463560  0.13858821       0.001
   0.08016156  0.02380050  0.13884391       0.001
   0.08030919  0.02296539  0.13909961       0.001
   0.08045681  0.02213029  0.13935531       0.001
   0.08060444  0.02129518  0.13961101       0.001
   0.08075207  0.02046008  0.13986670       0.001
   0.08089970  0.01962497  0.14012240       0.001
   0.08104732  0.01878987  0.14037810       0.001
   0.08119495  0.01795476  0.14063380       0.001
   0.08134258  0.01711965  0.14088950       0.001
   0.08149020  0.01628455  0.14114519       0.001
   0.08163783  0.01544944  0.14140089       0.001
   0.08178546  0.01461434  0.14165659       0.001
   0.08193309  0.01377923  0.14191229       0.001
   0.08208071  0.01294413  0.14216798       0.001
   0.08222834  0.01210902  0.14242368       0.001
   0.08237597  0.01127392  0.14267938       0.001
   0.08252359  0.01043881  0.14293508       0.001
   0.08267122  0.00960371  0.14319078       0.001
   0.08281885  0.00876860  0.14344647       0.001
   0.08296648  0.00793350  0.14370217       0.001
   0.08311410  0.00709839  0.14395787       0.001
   0.08326173  0.00626329  0.14421357       0.001
   0.08340936  0.00542818  0.14446926       0.001
   0.08355698  0.00459308  0.14472496       0.001
   0.08370461  0.00375797  0.14498066       0.001
   0.08385224  0.00292287  0.14523636       0.001
   0.08399987  0.00208776  0.14549206       0.001
   0.08414749  0.00125266  0.14574775       0.001
   0.08429512  0.00041755  0.14600345       0.001
   0.08444275 -0.00041755  0.14625915       0.001
   0.08459037 -0.00125266  0.14651485       0.001
   0.08473800 -0.00208776  0.14677055       0.001
   0.08488563 -0.00292287  0.14702624       0.001
   0.08503326 -0.00375797  0.14728194       0.001
   0.08518088 -0.00459308  0.14753764       0.001
   0.08532851 -0.00542818  0.14779334       0.001
   0.08547614 -0.00626329  0.14804903       0.001
   0.08562376 -0.00709839  0.14830473       0.001
   0.08577139 -0.00793350  0.14856043       0.001
   0.08591902 -0.00876860  0.14881613       0.001
   0.08606665 -0.00960371  0.14907183       0.001
   0.08621427 -0.01043881  0.14932752       0.001
   0.08636190 -0.01127392  0.14958322       0.001
   0.08650953 -0.01210902  0.14983892       0.001
   0.08665716 -0.01294413  0.15009462       0.001
   0.08680478 -0.01377923  0.15035031       0.001
   0.08695241 -0.01461434  0.15060601       0.001
   0.08710004 -0.01544944  0.15086171       0.001
   0.08724766 -0.01628455  0.15111741       0.001
   0.08739529 -0.01711965  0.15137311       0.001
   0.08754292 -0.01795476  0.15162880       0.001
   0.08769055 -0.01878987  0.15188450       0.001
   0.08783817 -0.01962497  0.15214020       0.001
   0.08798580 -0.02046008  0.15239590       0.001
   0.08813343 -0.02129518  0.15265159       0.001
   0.08828105 -0.02213029  0.15290729       0.001
   0.08842868 -0.02296539  0.15316299       0.001
   0.08857631 -0.02380050  0.15341869       0.001
   0.08872394 -0.02463560  0.15367439       0.001
   0.08887156 -0.02547071  0.15393008       0.001
   0.08901919 -0.02630581  0.15418578       0.001
   0.08916682 -0.02714092  0.15444148       0.001
   0.08931444 -0.02797602  0.15469718       0.001
   0.08946207 -0.02881113  0.15495288       0.001
   0.08960970 -0.02964623  0.15520857       0.001
   0.08975733 -0.03048134  0.15546427       0.001
   0.08990495 -0.03131644  0.15571997       0.001
   0.09005258 -0.03215155  0.15597567       0.001
   0.09020021 -0.03298665  0.15623136       0.001
   0.09034783 -0.03382176  0.15648706       0.001
   0.09049546 -0.03465686  0.15674276       0.001
   0.09064309 -0.03549197  0.15699846       0.001
   0.09079072 -0.03632707  0.15725416       0.001
   0.09093834 -0.03716218  0.15750985       0.001
   0.09108597 -0.03799728  0.15776555       0.001
   0.09123360 -0.03883239  0.15802125       0.001
   0.09138122 -0.03966749  0.15827695       0.001
   0.09152885 -0.04050260  0.15853264       0.001
   0.09167648 -0.04133770  0.15878834       0.001
   0.09182411 -0.04217281  0.15904404       0.001
   0.09197173 -0.04300791  0.15929974       0.001
   0.09211936 -0.04384302  0.15955544       0.001
   0.09226699 -0.04467812  0.15981113       0.001
   0.09241462 -0.04551323  0.16006683       0.001
   0.09256224 -0.04634833  0.16032253       0.001
   0.09270987 -0.04718344  0.16057823       0.001
   0.09285750 -0.04801854  0.16083392       0.001
   0.09300512 -0.04885365  0.16108962       0.001
   0.09315275 -0.04968875  0.16134532       0.001
   0.09330038 -0.05052386  0.16160102       0.001
   0.09344801 -0.05135896  0.16185672       0.001
   0.09359563 -0.05219407  0.16211241       0.001
   0.09374326 -0.05302917  0.16236811       0.001
   0.09374326 -0.05302917  0.16236811       0.001
   0.09330038 -0.05302917  0.16262381       0.001
   0.09285750 -0.05302917  0.16287951       0.001
   0.09241462 -0.05302917  0.16313521       0.001
   0.09197173 -0.05302917  0.16339090       0.001
   0.09152885 -0.05302917  0.16364660       0.001
   0.09108597 -0.05302917  0.16390230       0.001
   0.09064309 -0.05302917  0.16415800       0.001
   0.09020021 -0.05302917  0.16441369       0.001
   0.08975733 -0.05302917  0.16466939       0.001
   0.08931444 -0.05302917  0.16492509       0.001
   0.08887156 -0.05302917  0.16518079       0.001
   0.08842868 -0.05302917  0.16543649       0.001
   0.08798580 -0.05302917  0.16569218       0.001
   0.08754292 -0.05302917  0.16594788       0.001
   0.08710004 -0.05302917  0.16620358       0.001
   0.08665716 -0.05302917  0.16645928       0.001
   0.08621427 -0.05302917  0.16671497       0.001
   0.08577139 -0.05302917  0.16697067       0.001
   0.08532851 -0.05302917  0.16722637       0.001
   0.08488563 -0.05302917  0.16748207       0.001
   0.08444275 -0.05302917  0.16773777       0.001
   0.08399987 -0.05302917  0.16799346       0.001
   0.08355698 -0.05302917  0.16824916       0.001
   0.08311410 -0.05302917  0.16850486       0.001
   0.08267122 -0.05302917  0.16876056       0.001
   0.08222834 -0.05302917  0.16901625       0.001
   0.08178546 -0.05302917  0.16927195       0.001
   0.08134258 -0.05302917  0.16952765       0.001
   0.08089970 -0.05302917  0.16978335       0.001
   0.08045681 -0.05302917  0.17003905       0.001
   0.08001393 -0.05302917  0.17029474       0.001
   0.07957105 -0.05302917  0.17055044       0.001
   0.07912817 -0.05302917  0.17080614       0.001
   0.07868529 -0.05302917  0.17106184       0.001
   0.07824241 -0.05302917  0.17131754       0.001
   0.07779952 -0.05302917  0.17157323       0.001
   0.07735664 -0.05302917  0.17182893       0.001
   0.07691376 -0.05302917  0.17208463       0.001
   0.07647088 -0.05302917  0.17234033       0.001
   0.07602800 -0.05302917  0.17259602       0.001
   0.07558512 -0.05302917  0.17285172       0.001
   0.07514224 -0.05302917  0.17310742       0.001
   0.07469935 -0.05302917  0.17336312       0.001
   0.07425647 -0.05302917  0.17361882       0.001
   0.07381359 -0.05302917  0.17387451       0.001
   0.07337071 -0.05302917  0.17413021       0.001
   0.07292783 -0.05302917  0.17438591       0.001
   0.07248495 -0.05302917  0.17464161       0.001
   0.07204206 -0.05302917  0.17489730       0.001
   0.07159918 -0.05302917  0.17515300       0.001
   0.07115630 -0.05302917  0.17540870       0.001
   0.07071342 -0.05302917  0.17566440       0.001
   0.07027054 -0.05302917  0.17592010       0.001
   0.06982766 -0.05302917  0.17617579       0.001
   0.06938478 -0.05302917  0.17643149       0.001
   0.06894189 -0.05302917  0.17668719       0.001
   0.06849901 -0.05302917  0.17694289       0.001
   0.06805613 -0.05302917  0.17719858       0.001
   0.06761325 -0.05302917  0.17745428       0.001
   0.06717037 -0.05302917  0.17770998       0.001
   0.06672749 -0.05302917  0.17796568       0.001
   0.06628460 -0.05302917  0.17822138       0.001
   0.06584172 -0.05302917  0.17847707       0.001
   0.06539884 -0.05302917  0.17873277       0.001
   0.06495596 -0.05302917  0.17898847       0.001
   0.06451308 -0.05302917  0.17924417       0.001
   0.06407020 -0.05302917  0.17949987       0.001
   0.06362731 -0.05302917  0.17975556       0.001
   0.06318443 -0.05302917  0.18001126       0.001
   0.06274155 -0.05302917  0.18026696       0.001
   0.06229867 -0.05302917  0.18052266       0.001
   0.06185579 -0.05302917  0.18077835       0.001
   0.06141291 -0.05302917  0.18103405       0.001
   0.06097003 -0.05302917  0.18128975       0.001
   0.06052714 -0.05302917  0.18154545       0.001
   0.06008426 -0.05302917  0.18180115       0.001
   0.05964138 -0.05302917  0.18205684       0.001
   0.05919850 -0.05302917  0.18231254       0.001
   0.05875562 -0.05302917  0.18256824       0.001
   0.05831274 -0.05302917  0.18282394       0.001
   0.05786985 -0.05302917  0.18307963       0.001
   0.05742697 -0.05302917  0.18333533       0.001
   0.05698409 -0.05302917  0.18359103       0.001
   0.05654121 -0.05302917  0.18384673       0.001
   0.05609833 -0.05302917  0.18410243       0.001
   0.05565545 -0.05302917  0.18435812       0.001
   0.05521257 -0.05302917  0.18461382       0.001
   0.05476968 -0.05302917  0.18486952       0.001
   0.05432680 -0.05302917  0.18512522       0.001
   0.05388392 -0.05302917  0.18538091       0.001
   0.05344104 -0.05302917  0.18563661       0.001
   0.05299816 -0.05302917  0.18589231       0.001
   0.05255528 -0.05302917  0.18614801       0.001
   0.05211239 -0.05302917  0.18640371       0.001
   0.05166951 -0.05302917  0.18665940       0.001
   0.05122663 -0.05302917  0.18691510       0.001
   0.05078375 -0.05302917  0.18717080       0.001
   0.05034087 -0.05302917  0.18742650       0.001
   0.04989799 -0.05302917  0.18768220       0.001
   0.04945511 -0.05302917  0.18793789       0.001
   0.04901222 -0.05302917  0.18819359       0.001
   0.04856934 -0.05302917  0.18844929       0.001
   0.04812646 -0.05302917  0.18870499       0.001
   0.04768358 -0.05302917  0.18896068       0.001
   0.04724070 -0.05302917  0.18921638       0.001
   0.04679782 -0.05302917  0.18947208       0.001
   0.04635493 -0.05302917  0.18972778       0.001
   0.04591205 -0.05302917  0.18998348       0.001
   0.04546917 -0.05302917  0.19023917       0.001
   0.04502629 -0.05302917  0.19049487       0.001
   0.04458341 -0.05302917  0.19075057       0.001
   0.04414053 -0.05302917  0.19100627       0.001
   0.04369765 -0.05302917  0.19126196       0.001
   0.04325476 -0.05302917  0.19151766       0.001
   0.04281188 -0.05302917  0.19177336       0.001
   0.04236900 -0.05302917  0.19202906       0.001
   0.04192612 -0.05302917  0.19228476       0.001
   0.04148324 -0.05302917  0.19254045       0.001
   0.04104036 -0.05302917  0.19279615       0.001
   0.04059747 -0.05302917  0.19305185       0.001
   0.04015459 -0.05302917  0.19330755       0.001
   0.03971171 -0.05302917  0.19356324       0.001
   0.03926883 -0.05302917  0.19381894       0.001
   0.03882595 -0.05302917  0.19407464       0.001
   0.03838307 -0.05302917  0.19433034       0.001
   0.03794019 -0.05302917  0.19458604       0.001
   0.03749730 -0.05302917  0.19484173       0.001
   0.03749730 -0.05302917  0.19484173       0.001
   0.03779256 -0.05219407  0.19433034       0.001
   0.03808781 -0.05135896  0.19381894       0.001
   0.03838307 -0.05052386  0.19330755       0.001
   0.03867832 -0.04968875  0.19279615       0.001
   0.03897358 -0.04885365  0.19228476       0.001
   0.03926883 -0.04801854  0.19177336       0.001
   0.03956408 -0.04718344  0.19126196       0.001
   0.03985934 -0.04634833  0.19075057       0.001
   0.04015459 -0.04551323  0.19023917       0.001
   0.04044985 -0.04467812  0.18972778       0.001
   0.04074510 -0.04384302  0.18921638       0.001
   0.04104036 -0.04300791  0.18870499       0.001
   0.04133561 -0.04217281  0.18819359       0.001
   0.04163087 -0.04133770  0.18768220       0.001
   0.04192612 -0.04050260  0.18717080       0.001
   0.04222137 -0.03966749  0.18665940       0.001
   0.04251663 -0.03883239  0.18614801       0.001
   0.04281188 -0.03799728  0.18563661       0.001
   0.04310714 -0.03716218  0.18512522       0.001
   0.04340239 -0.03632707  0.18461382       0.001
   0.04369765 -0.03549197  0.18410243       0.001
   0.04399290 -0.03465686  0.18359103       0.001
   0.04428815 -0.03382176  0.18307963       0.001
   0.04458341 -0.03298665  0.18256824       0.001
   0.04487866 -0.03215155  0.18205684       0.001
   0.04517392 -0.03131644  0.18154545       0.001
   0.04546917 -0.03048134  0.18103405       0.001
   0.04576443 -0.02964623  0.18052266       0.001
   0.04605968 -0.02881113  0.18001126       0.001
   0.04635493 -0.02797602  0.17949987       0.001
   0.04665019 -0.02714092  0.17898847       0.001
   0.04694544 -0.02630581  0.17847707       0.001
   0.04724070 -0.02547071  0.17796568       0.001
   0.04753595 -0.02463560  0.17745428       0.001
   0.04783121 -0.02380050  0.17694289       0.001
   0.04812646 -0.02296539  0.17643149       0.001
   0.04842172 -0.02213029  0.17592010       0.001
   0.04871697 -0.02129518  0.17540870       0.001
   0.04901222 -0.02046008  0.17489730       0.001
   0.04930748 -0.01962497  0.17438591       0.001
   0.04960273 -0.01878987  0.17387451       0.001
   0.04989799 -0.01795476  0.17336312       0.001
   0.05019324 -0.01711965  0.17285172       0.001
   0.05048850 -0.01628455  0.17234033       0.001
   0.05078375 -0.01544944  0.17182893       0.001
   0.05107900 -0.01461434  0.17131754       0.001
   0.05137426 -0.01377923  0.17080614       0.001
   0.05166951 -0.01294413  0.17029474       0.001
   0.05196477 -0.01210902  0.16978335       0.001
   0.05226002 -0.01127392  0.16927195       0.001
   0.05255528 -0.01043881  0.16876056       0.001
   0.05285053 -0.00960371  0.16824916       0.001
   0.05314579 -0.00876860  0.16773777       0.001
   0.05344104 -0.00793350  0.16722637       0.001
   0.05373629 -0.00709839  0.16671497       0.001
   0.05403155 -0.00626329  0.16620358       0.001
   0.05432680 -0.00542818  0.16569218       0.001
   0.05462206 -0.00459308  0.16518079       0.001
   0.05491731 -0.00375797  0.16466939       0.001
   0.05521257 -0.00292287  0.16415800       0.001
   0.05550782 -0.00208776  0.16364660       0.001
   0.05580307 -0.00125266  0.16313521       0.001
   0.05609833 -0.00041755  0.16262381       0.001
   0.05639358  0.00041755  0.16211241       0.001
   0.05668884  0.00125266  0.16160102       0.001
   0.05698409  0.00208776  0.16108962       0.001
   0.05727935  0.00292287  0.16057823       0.001
   0.05757460  0.00375797  0.16006683       0.001
   0.05786985  0.00459308  0.15955544       0.001
   0.05816511  0.00542818  0.15904404       0.001
   0.05846036  0.00626329  0.15853264       0.001
   0.05875562  0.00709839  0.15802125       0.001
   0.05905087  0.00793350  0.15750985       0.001
   0.05934613  0.00876860  0.15699846       0.001
   0.05964138  0.00960371  0.15648706       0.001
   0.05993664  0.01043881  0.15597567       0.001
   0.06023189  0.01127392  0.15546427       0.001
   0.06052714  0.01210902  0.15495288       0.001
   0.06082240  0.01294413  0.15444148       0.001
   0.06111765  0.01377923  0.15393008       0.001
   0.06141291  0.01461434  0.15341869       0.001
   0.06170816  0.01544944  0.15290729       0.001
   0.06200342  0.01628455  0.15239590       0.001
   0.06229867  0.01711965  0.15188450       0.001
   0.06259392  0.01795476  0.15137311       0.001
   0.06288918  0.01878987  0.15086171       0.001
   0.06318443  0.01962497  0.15035031       0.001
   0.06347969  0.02046008  0.14983892       0.001
   0.06377494  0.02129518  0.14932752       0.001
   0.06407020  0.02213029  0.14881613       0.001
   0.06436545  0.02296539  0.14830473       0.001
   0.06466071  0.02380050  0.14779334       0.001
   0.06495596  0.02463560  0.14728194       0.001
   0.06525121  0.02547071  0.14677055       0.001
   0.06554647  0.02630581  0.14625915       0.001
   0.06584172  0.02714092  0.14574775       0.001
   0.06613698  0.02797602  0.14523636       0.001
   0.06643223  0.02881113  0.14472496       0.001
   0.06672749  0.02964623  0.14421357       0.001
   0.06702274  0.03048134  0.14370217       0.001
   0.06731799  0.03131644  0.14319078       0.001
   0.06761325  0.03215155  0.14267938       0.001
   0.06790850  0.03298665  0.14216798       0.001
   0.06820376  0.03382176  0.14165659       0.001
   0.06849901  0.03465686  0.14114519       0.001
   0.06879427  0.03549197  0.14063380       0.001
   0.06908952  0.03632707  0.14012240       0.001
   0.06938478  0.03716218  0.13961101       0.001
   0.06968003  0.03799728  0.13909961       0.001
   0.06997528  0.03883239  0.13858821       0.001
   0.07027054  0.03966749  0.13807682       0.001
   0.07056579  0.04050260  0.13756542       0.001
   0.07086105  0.04133770  0.13705403       0.001
   0.07115630  0.04217281  0.13654263       0.001
   0.07145156  0.04300791  0.13603124       0.001
   0.07174681  0.04384302  0.13551984       0.001
   0.07204206  0.04467812  0.13500845       0.001
   0.07233732  0.04551323  0.13449705       0.001
   0.07263257  0.04634833  0.13398565       0.001
   0.07292783  0.04718344  0.13347426       0.001
   0.07322308  0.04801854  0.13296286       0.001
   0.07351834  0.04885365  0.13245147       0.001
   0.07381359  0.04968875  0.13194007       0.001
   0.07410884  0.05052386  0.13142868       0.001
   0.07440410  0.05135896  0.13091728       0.001
   0.07469935  0.05219407  0.13040588       0.001
   0.07499461  0.05302917  0.12989449       0.001
   0.07499461  0.05302917  0.12989449       0.001
   0.07440410  0.05261162  0.13040588       0.001
   0.07381359  0.05219407  0.13091728       0.001
   0.07322308  0.05177652  0.13142868       0.001
   0.07263257  0.05135896  0.13194007       0.001
   0.07204206  0.05094141  0.13245147       0.001
   0.07145156  0.05052386  0.13296286       0.001
   0.07086105  0.05010631  0.13347426       0.001
   0.07027054  0.04968875  0.13398565       0.001
   0.06968003  0.04927120  0.13449705       0.001
   0.06908952  0.04885365  0.13500845       0.001
   0.06849901  0.04843610  0.13551984       0.001
   0.06790850  0.04801854  0.13603124       0.001
   0.06731799  0.04760099  0.13654263       0.001
   0.06672749  0.04718344  0.13705403       0.001
   0.06613698  0.04676589  0.13756542       0.001
   0.06554647  0.04634833  0.13807682       0.001
   0.06495596  0.04593078  0.13858821       0.001
   0.06436545  0.04551323  0.13909961       0.001
   0.06377494  0.04509568  0.13961101       0.001
   0.06318443  0.04467812  0.14012240       0.001
   0.06259392  0.04426057  0.14063380       0.001
   0.06200342  0.04384302  0.14114519       0.001
   0.06141291  0.04342547  0.14165659       0.001
   0.06082240  0.04300791  0.14216798       0.001
   0.06023189  0.04259036  0.14267938       0.001
   0.05964138  0.04217281  0.14319078       0.001
   0.05905087  0.04175526  0.14370217       0.001
   0.05846036  0.04133770  0.14421357       0.001
   0.05786985  0.04092015  0.14472496       0.001
   0.05727935  0.04050260  0.14523636       0.001
   0.05668884  0.04008505  0.14574775       0.001
   0.05609833  0.03966749  0.14625915       0.001
   0.05550782  0.03924994  0.14677055       0.001
   0.05491731  0.03883239  0.14728194       0.001
   0.05432680  0.03841484  0.14779334       0.001
   0.05373629  0.03799728  0.14830473       0.001
   0.05314579  0.03757973  0.14881613       0.001
   0.05255528  0.03716218  0.14932752       0.001
   0.05196477  0.03674463  0.14983892       0.001
   0.05137426  0.03632707  0.15035031       0.001
   0.05078375  0.03590952  0.15086171       0.001
   0.05019324  0.03549197  0.15137311       0.001
   0.04960273  0.03507441  0.15188450       0.001
   0.04901222  0.03465686  0.15239590       0.001
   0.04842172  0.03423931  0.15290729       0.001
   0.04783121  0.03382176  0.15341869       0.001
   0.04724070  0.03340420  0.15393008       0.001
   0.04665019  0.03298665  0.15444148       0.001
   0.04605968  0.03256910  0.15495288       0.001
   0.04546917  0.03215155  0.15546427       0.001
   0.04487866  0.03173399  0.15597567       0.001
   0.04428815  0.03131644  0.15648706       0.001
   0.04369765  0.03089889  0.15699846       0.001
   0.04310714  0.03048134  0.15750985       0.001
   0.04251663  0.03006378  0.15802125       0.001
   0.04192612  0.02964623  0.15853264       0.001
   0.04133561  0.02922868  0.15904404       0.001
   0.04074510  0.02881113  0.15955544       0.001
   0.04015459  0.02839357  0.16006683       0.001
   0.03956408  0.02797602  0.16057823       0.001
   0.03897358  0.02755847  0.16108962       0.001
   0.03838307  0.02714092  0.16160102       0.001
   0.03779256  0.02672336  0.16211241       0.001
   0.03720205  0.02630581  0.16262381       0.001
   0.03661154  0.02588826  0.16313521       0.001
   0.03602103  0.02547071  0.16364660       0.001
   0.03543052  0.02505315  0.16415800       0.001
   0.03484001  0.02463560  0.16466939       0.001
   0.03424951  0.02421805  0.16518079       0.001
   0.03365900  0.02380050  0.16569218       0.001
   0.03306849  0.02338294  0.16620358       0.001
   0.03247798  0.02296539  0.16671497       0.001
   0.03188747  0.02254784  0.16722637       0.001
   0.03129696  0.02213029  0.16773777       0.001
   0.03070645  0.02171273  0.16824916       0.001
   0.03011594  0.02129518  0.16876056       0.001
   0.02952544  0.02087763  0.16927195       0.001
   0.02893493  0.02046008  0.16978335       0.001
   0.02834442  0.02004252  0.17029474       0.001
   0.02775391  0.01962497  0.17080614       0.001
   0.02716340  0.01920742  0.17131754       0.001
   0.02657289  0.01878987  0.17182893       0.001
   0.02598238  0.01837231  0.17234033       0.001
   0.02539188  0.01795476  0.17285172       0.001
   0.02480137  0.01753721  0.17336312       0.001
   0.02421086  0.01711965  0.17387451       0.001
   0.02362035  0.01670210  0.17438591       0.001
   0.02302984  0.01628455  0.17489730       0.001
   0.02243933  0.01586700  0.17540870       0.001
   0.02184882  0.01544944  0.17592010       0.001
   0.02125831  0.01503189  0.17643149       0.001
   0.02066781  0.01461434  0.17694289       0.001
   0.02007730  0.01419679  0.17745428       0.001
   0.01948679  0.01377923  0.17796568       0.001
   0.01889628  0.01336168  0.17847707       0.001
   0.01830577  0.01294413  0.17898847       0.001
   0.01771526  0.01252658  0.17949987       0.001
   0.01712475  0.01210902  0.18001126       0.001
   0.01653424  0.01169147  0.18052266       0.001
   0.01594374  0.01127392  0.18103405       0.001
   0.01535323  0.01085637  0.18154545       0.001
   0.01476272  0.01043881  0.18205684       0.001
   0.01417221  0.01002126  0.18256824       0.001
   0.01358170  0.00960371  0.18307963       0.001
   0.01299119  0.00918616  0.18359103       0.001
   0.01240068  0.00876860  0.18410243       0.001
   0.01181017  0.00835105  0.18461382       0.001
   0.01121967  0.00793350  0.18512522       0.001
   0.01062916  0.00751595  0.18563661       0.001
   0.01003865  0.00709839  0.18614801       0.001
   0.00944814  0.00668084  0.18665940       0.001
   0.00885763  0.00626329  0.18717080       0.001
   0.00826712  0.00584574  0.18768220       0.001
   0.00767661  0.00542818  0.18819359       0.001
   0.00708610  0.00501063  0.18870499       0.001
   0.00649560  0.00459308  0.18921638       0.001
   0.00590509  0.00417553  0.18972778       0.001
   0.00531458  0.00375797  0.19023917       0.001
   0.00472407  0.00334042  0.19075057       0.001
   0.00413356  0.00292287  0.19126196       0.001
   0.00354305  0.00250532  0.19177336       0.001
   0.00295254  0.00208776  0.19228476       0.001
   0.00236203  0.00167021  0.19279615       0.001
   0.00177153  0.00125266  0.19330755       0.001
   0.00118102  0.00083511  0.19381894       0.001
   0.00059051  0.00041755  0.19433034       0.001
   0.00000000  0.00000000  0.19484173       0.001
   0.00000000  0.00000000  0.19484173       0.001
   0.00073814 -0.00041755  0.19458604       0.001
   0.00147627 -0.00083511  0.19433034       0.001
   0.00221441 -0.00125266  0.19407464       0.001
   0.00295254 -0.00167021  0.19381894       0.001
   0.00369068 -0.00208776  0.19356324       0.001
   0.00442882 -0.00250532  0.19330755       0.001
   0.00516695 -0.00292287  0.19305185       0.001
   0.00590509 -0.00334042  0.19279615       0.001
   0.00664322 -0.00375797  0.19254045       0.001
   0.00738136 -0.00417553  0.19228476       0.001
   0.00811949 -0.00459308  0.19202906       0.001
   0.00885763 -0.00501063  0.19177336       0.001
   0.00959577 -0.00542818  0.19151766       0.001
   0.01033390 -0.00584574  0.19126196       0.001
   0.01107204 -0.00626329  0.19100627       0.001
   0.01181017 -0.00668084  0.19075057       0.001
   0.01254831 -0.00709839  0.19049487       0.001
   0.01328645 -0.00751595  0.19023917       0.001
   0.01402458 -0.00793350  0.18998348       0.001
   0.01476272 -0.00835105  0.18972778       0.001
   0.01550085 -0.00876860  0.18947208       0.001
   0.01623899 -0.00918616  0.18921638       0.001
   0.01697713 -0.00960371  0.18896068       0.001
   0.01771526 -0.01002126  0.18870499       0.001
   0.01845340 -0.01043881  0.18844929       0.001
   0.01919153 -0.01085637  0.18819359       0.001
   0.01992967 -0.01127392  0.18793789       0.001
   0.02066781 -0.01169147  0.18768220       0.001
   0.02140594 -0.01210902  0.18742650       0.001
   0.02214408 -0.01252658  0.18717080       0.001
   0.02288221 -0.01294413  0.18691510       0.001
   0.02362035 -0.01336168  0.18665940       0.001
   0.02435848 -0.01377923  0.18640371       0.001
   0.02509662 -0.01419679  0.18614801       0.001
[...]
      7      15.6609      0.00000
      8      15.7259      0.00000
      9      16.5000      0.00000
     10      16.5415      0.00000
     11      18.4008      0.00000
     12      18.4041      0.00000

 k-point  1389 :       0.5187    0.0374    0.5187
  band No.  band energies     occupation 
      1      -2.0454      2.00000
      2      -2.0270      2.00000
      3       2.8392      2.00000
      4       2.9299      2.00000
      5       6.4889      0.00314
      6       6.5990      0.00019
      7      15.6743      0.00000
      8      15.7334      0.00000
      9      16.5179      0.00000
     10      16.5558      0.00000
     11      18.3862      0.00000
     12      18.3889      0.00000

 k-point  1390 :       0.5177    0.0354    0.5177
  band No.  band energies     occupation 
      1      -2.0449      2.00000
      2      -2.0284      2.00000
      3       2.8472      2.00000
      4       2.9289      2.00000
      5       6.4877      0.00322
      6       6.5868      0.00027
      7      15.6871      0.00000
      8      15.7407      0.00000
      9      16.5352      0.00000
     10      16.5696      0.00000
     11      18.3725      0.00000
     12      18.3753      0.00000

 k-point  1391 :       0.5167    0.0335    0.5167
  band No.  band energies     occupation 
      1      -2.0444      2.00000
      2      -2.0296      2.00000
      3       2.8549      2.00000
      4       2.9279      2.00000
      5       6.4866      0.00331
      6       6.5753      0.00036
      7      15.6993      0.00000
      8      15.7476      0.00000
      9      16.5519      0.00000
     10      16.5828      0.00000
     11      18.3594      0.00000
     12      18.3624      0.00000

 k-point  1392 :       0.5157    0.0315    0.5157
  band No.  band energies     occupation 
      1      -2.0439      2.00000
      2      -2.0308      2.00000
      3       2.8621      2.00000
      4       2.9270      2.00000
      5       6.4856      0.00338
      6       6.5643      0.00049
      7      15.7110      0.00000
      8      15.7541      0.00000
      9      16.5678      0.00000
     10      16.5955      0.00000
     11      18.3470      0.00000
     12      18.3499      0.00000

 k-point  1393 :       0.5148    0.0295    0.5148
  band No.  band energies     occupation 
      1      -2.0434      2.00000
      2      -2.0320      2.00000
      3       2.8690      2.00000
      4       2.9262      2.00000
      5       6.4846      0.00346
      6       6.5540      0.00064
      7      15.7221      0.00000
      8      15.7602      0.00000
      9      16.5830      0.00000
     10      16.6076      0.00000
     11      18.3352      0.00000
     12      18.3381      0.00000

 k-point  1394 :       0.5138    0.0276    0.5138
  band No.  band energies     occupation 
      1      -2.0430      2.00000
      2      -2.0330      2.00000
      3       2.8754      2.00000
      4       2.9254      2.00000
      5       6.4837      0.00353
      6       6.5443      0.00082
      7      15.7325      0.00000
      8      15.7660      0.00000
      9      16.5974      0.00000
     10      16.6191      0.00000
     11      18.3241      0.00000
     12      18.3268      0.00000

 k-point  1395 :       0.5128    0.0256    0.5128
  band No.  band energies     occupation 
      1      -2.0426      2.00000
      2      -2.0340      2.00000
      3       2.8815      2.00000
      4       2.9247      2.00000
      5       6.4829      0.00360
      6       6.5352      0.00103
      7      15.7423      0.00000
      8      15.7714      0.00000
      9      16.6111      0.00000
     10      16.6299      0.00000
     11      18.3136      0.00000
     12      18.3162      0.00000

 k-point  1396 :       0.5118    0.0236    0.5118
  band No.  band energies     occupation 
      1      -2.0422      2.00000
      2      -2.0349      2.00000
      3       2.8871      2.00000
      4       2.9240      2.00000
      5       6.4821      0.00366
      6       6.5268      0.00127
      7      15.7515      0.00000
      8      15.7764      0.00000
      9      16.6238      0.00000
     10      16.6400      0.00000
     11      18.3039      0.00000
     12      18.3062      0.00000

 k-point  1397 :       0.5108    0.0217    0.5108
  band No.  band energies     occupation 
      1      -2.0419      2.00000
      2      -2.0358      2.00000
      3       2.8923      2.00000
      4       2.9234      2.00000
      5       6.4814      0.00372
      6       6.5190      0.00154
      7      15.7599      0.00000
      8      15.7810      0.00000
      9      16.6358      0.00000
     10      16.6494      0.00000
     11      18.2948      0.00000
     12      18.2970      0.00000

 k-point  1398 :       0.5098    0.0197    0.5098
  band No.  band energies     occupation 
      1      -2.0416      2.00000
      2      -2.0365      2.00000
      3       2.8971      2.00000
      4       2.9228      2.00000
      5       6.4807      0.00378
      6       6.5119      0.00183
      7      15.7678      0.00000
      8      15.7853      0.00000
      9      16.6468      0.00000
     10      16.6582      0.00000
     11      18.2865      0.00000
     12      18.2884      0.00000

 k-point  1399 :       0.5089    0.0177    0.5089
  band No.  band energies     occupation 
      1      -2.0413      2.00000
      2      -2.0372      2.00000
      3       2.9014      2.00000
      4       2.9223      2.00000
      5       6.4802      0.00383
      6       6.5054      0.00214
      7      15.7749      0.00000
      8      15.7891      0.00000
      9      16.6568      0.00000
     10      16.6661      0.00000
     11      18.2790      0.00000
     12      18.2806      0.00000

 k-point  1400 :       0.5079    0.0157    0.5079
  band No.  band energies     occupation 
      1      -2.0411      2.00000
      2      -2.0379      2.00000
      3       2.9053      2.00000
      4       2.9219      2.00000
      5       6.4796      0.00387
      6       6.4996      0.00245
      7      15.7813      0.00000
      8      15.7926      0.00000
      9      16.6660      0.00000
     10      16.6733      0.00000
     11      18.2722      0.00000
     12      18.2735      0.00000

 k-point  1401 :       0.5069    0.0138    0.5069
  band No.  band energies     occupation 
      1      -2.0409      2.00000
      2      -2.0384      2.00000
      3       2.9088      2.00000
      4       2.9215      2.00000
      5       6.4792      0.00392
      6       6.4945      0.00276
      7      15.7869      0.00000
      8      15.7956      0.00000
      9      16.6741      0.00000
     10      16.6797      0.00000
     11      18.2661      0.00000
     12      18.2672      0.00000

 k-point  1402 :       0.5059    0.0118    0.5059
  band No.  band energies     occupation 
      1      -2.0407      2.00000
      2      -2.0389      2.00000
      3       2.9118      2.00000
      4       2.9211      2.00000
      5       6.4787      0.00395
      6       6.4900      0.00306
      7      15.7919      0.00000
      8      15.7983      0.00000
      9      16.6811      0.00000
     10      16.6853      0.00000
     11      18.2609      0.00000
     12      18.2617      0.00000

 k-point  1403 :       0.5049    0.0098    0.5049
  band No.  band energies     occupation 
      1      -2.0406      2.00000
      2      -2.0393      2.00000
      3       2.9143      2.00000
      4       2.9208      2.00000
      5       6.4784      0.00398
      6       6.4862      0.00334
      7      15.7961      0.00000
      8      15.8005      0.00000
      9      16.6872      0.00000
     10      16.6901      0.00000
     11      18.2564      0.00000
     12      18.2570      0.00000

 k-point  1404 :       0.5039    0.0079    0.5039
  band No.  band energies     occupation 
      1      -2.0404      2.00000
      2      -2.0396      2.00000
      3       2.9164      2.00000
      4       2.9206      2.00000
      5       6.4781      0.00401
      6       6.4831      0.00358
      7      15.7995      0.00000
      8      15.8024      0.00000
      9      16.6921      0.00000
     10      16.6940      0.00000
     11      18.2528      0.00000
     12      18.2531      0.00000

 k-point  1405 :       0.5030    0.0059    0.5030
  band No.  band energies     occupation 
      1      -2.0403      2.00000
      2      -2.0399      2.00000
      3       2.9180      2.00000
      4       2.9204      2.00000
      5       6.4779      0.00403
      6       6.4807      0.00378
      7      15.8022      0.00000
      8      15.8038      0.00000
      9      16.6960      0.00000
     10      16.6971      0.00000
     11      18.2499      0.00000
     12      18.2501      0.00000

 k-point  1406 :       0.5020    0.0039    0.5020
  band No.  band energies     occupation 
      1      -2.0403      2.00000
      2      -2.0400      2.00000
      3       2.9192      2.00000
      4       2.9202      2.00000
      5       6.4778      0.00404
      6       6.4790      0.00393
      7      15.8041      0.00000
      8      15.8049      0.00000
      9      16.6988      0.00000
     10      16.6993      0.00000
     11      18.2479      0.00000
     12      18.2480      0.00000

 k-point  1407 :       0.5010    0.0020    0.5010
  band No.  band energies     occupation 
      1      -2.0402      2.00000
      2      -2.0402      2.00000
      3       2.9199      2.00000
      4       2.9202      2.00000
      5       6.4777      0.00405
      6       6.4780      0.00402
      7      15.8053      0.00000
      8      15.8055      0.00000
      9      16.7005      0.00000
     10      16.7006      0.00000
     11      18.2466      0.00000
     12      18.2467      0.00000

 k-point  1408 :       0.5000    0.0000    0.5000
  band No.  band energies     occupation 
      1      -2.0402      2.00000
      2      -2.0402      2.00000
      3       2.9201      2.00000
      4       2.9201      2.00000
      5       6.4776      0.00405
      6       6.4776      0.00405
      7      15.8057      0.00000
      8      15.8057      0.00000
      9      16.7010      0.00000
     10      16.7010      0.00000
     11      18.2462      0.00000
     12      18.2463      0.00000


--------------------------------------------------------------------------------------------------------


 soft charge-density along one line, spin component           1
         0         1         2         3         4         5         6         7         8         9
x     8.4549    0.0000    2.0438    0.0000    0.3647    0.0000    0.0906    0.0000    0.0039    0.0000
x    -0.0027   -0.0000   -0.0009   -0.0000    0.0000   -0.0000    0.0000    0.0000    0.0000   -0.0000
x    -0.0000   -0.0000   -0.0000   -0.0000    0.0000    0.0000
y     8.4549    0.0000    2.0438    0.0000    0.3647    0.0000    0.0906    0.0000    0.0039    0.0000
y    -0.0027   -0.0000   -0.0009   -0.0000    0.0000   -0.0000    0.0000    0.0000    0.0000   -0.0000
y    -0.0000   -0.0000   -0.0000   -0.0000    0.0000    0.0000
z     8.4549    0.0000    2.0438    0.0000    0.3647    0.0000    0.0906    0.0000    0.0039    0.0000
z    -0.0027   -0.0000   -0.0009   -0.0000    0.0000   -0.0000    0.0000    0.0000    0.0000   -0.0000
z    -0.0000   -0.0000   -0.0000   -0.0000    0.0000    0.0000
 total charge-density along one line
x     8.0000    0.0000    1.7691    0.0000    0.3648    0.0000    0.1574    0.0000    0.0223   -0.0000
x    -0.0038   -0.0000   -0.0009   -0.0000   -0.0003   -0.0000    0.0001   -0.0000    0.0001   -0.0000
x    -0.0000   -0.0000    0.0000    0.0000   -0.0000    0.0000    0.0000    0.0000    0.0000    0.0000
x     0.0000    0.0000   -0.0000   -0.0000   -0.0000   -0.0000    0.0000    0.0000   -0.0000   -0.0000
x     0.0000   -0.0000   -0.0000    0.0000   -0.0000    0.0000   -0.0000   -0.0000    0.0000    0.0000
y     8.0000    0.0000    1.7691    0.0000    0.3648    0.0000    0.1574    0.0000    0.0223   -0.0000
y    -0.0038   -0.0000   -0.0009   -0.0000   -0.0003   -0.0000    0.0001   -0.0000    0.0001    0.0000
y    -0.0000    0.0000    0.0000   -0.0000   -0.0000    0.0000    0.0000   -0.0000    0.0000   -0.0000
y     0.0000    0.0000   -0.0000   -0.0000   -0.0000   -0.0000    0.0000   -0.0000   -0.0000   -0.0000
y     0.0000    0.0000   -0.0000    0.0000   -0.0000    0.0000   -0.0000    0.0000    0.0000   -0.0000
z     8.0000    0.0000    1.7691    0.0000    0.3648    0.0000    0.1574    0.0000    0.0223    0.0000
z    -0.0038   -0.0000   -0.0009    0.0000   -0.0003   -0.0000    0.0001    0.0000    0.0001    0.0000
z    -0.0000    0.0000    0.0000   -0.0000   -0.0000    0.0000    0.0000   -0.0000    0.0000   -0.0000
z     0.0000    0.0000   -0.0000    0.0000   -0.0000   -0.0000    0.0000    0.0000   -0.0000    0.0000
z     0.0000   -0.0000   -0.0000   -0.0000   -0.0000    0.0000   -0.0000    0.0000    0.0000   -0.0000
 
 pseudopotential strength for first ion, spin component:           1
 18.425  25.706   0.000   0.000   0.000   0.000   0.000   0.000
 25.706  35.868   0.000   0.000   0.000   0.000   0.000   0.000
  0.000   0.000   4.179  -0.000  -0.000   7.788  -0.000  -0.000
  0.000   0.000  -0.000   4.179  -0.000  -0.000   7.788  -0.000
  0.000   0.000  -0.000  -0.000   4.179  -0.000  -0.000   7.788
  0.000   0.000   7.788  -0.000  -0.000  14.523  -0.000  -0.000
  0.000   0.000  -0.000   7.788  -0.000  -0.000  14.523  -0.000
  0.000   0.000  -0.000  -0.000   7.788  -0.000  -0.000  14.523
 total augmentation occupancy for first ion, spin component:           1
  5.513  -2.002   0.000   0.000  -0.000   0.000   0.000   0.000
 -2.002   0.796   0.000  -0.000  -0.000   0.000   0.000   0.000
 -0.000  -0.000   3.001  -0.000   0.000  -0.683   0.000  -0.000
  0.000  -0.000  -0.000   3.001   0.000  -0.000  -0.683  -0.000
 -0.000  -0.000   0.000   0.000   3.001  -0.000  -0.000  -0.683
  0.000   0.000  -0.683  -0.000  -0.000   0.165   0.000   0.000
  0.000  -0.000   0.000  -0.683  -0.000  -0.000   0.165   0.000
 -0.000  -0.000  -0.000  -0.000  -0.683   0.000   0.000   0.165


------------------------ aborting loop because EDIFF is reached ----------------------------------------


 


 total charge     
 
# of ion       s       p       d       tot
------------------------------------------
    1        0.745   0.941   0.000   1.686
    2        0.745   0.941   0.000   1.686
--------------------------------------------------
tot          1.490   1.882   0.000   3.372
 
    CHARGE:  cpu time    1.0024: real time    0.9022
    FORLOC:  cpu time    0.0013: real time    0.0012
    FORNL :  cpu time    1.1231: real time    1.0109
    STRESS:  cpu time    3.3192: real time    2.9879
    FORCOR:  cpu time    0.0314: real time    0.0283
    FORHAR:  cpu time    0.0064: real time    0.0058
    MIXING:  cpu time    0.0015: real time    0.0013
    OFIELD:  cpu time    0.0000: real time    0.0000

  FORCE on cell =-STRESS in cart. coord.  units (eV):
  Direction    XX          YY          ZZ          XY          YZ          ZX
  --------------------------------------------------------------------------------------
  Alpha Z     3.33881     3.33881     3.33881
  Ewald     -75.99608   -75.99616   -75.99607     0.00001    -0.00000     0.00000
  Hartree     4.99683     4.99683     4.99683     0.00000     0.00000     0.00000
  E(xc)     -25.30780   -25.30780   -25.30780    -0.00000    -0.00000    -0.00000
  Local     -29.19506   -29.19504   -29.19504    -0.00000     0.00001     0.00001
  n-local    78.33670    77.88617    75.75538    -0.98502     0.97791    -2.40760
  augment   -11.56105   -11.56105   -11.56106    -0.00000    -0.00001    -0.00001
  Kinetic    58.29549    56.77341    53.26422    -0.27059    -1.17565    -2.16577
  Fock        0.00000     0.00000     0.00000     0.00000     0.00000     0.00000
  -------------------------------------------------------------------------------------
  Total      -0.28725    -0.28725    -0.28725     0.00000     0.00000    -0.00000
  in kB     -11.41151   -11.41152   -11.41151     0.00000     0.00000    -0.00000
  external pressure =      -11.41 kB  Pullay stress =        0.00 kB


 VOLUME and BASIS-vectors are now :
 -----------------------------------------------------------------------------
  energy-cutoff  :      600.00
  volume of cell :       40.33
      direct lattice vectors                 reciprocal lattice vectors
     3.333573000  0.000000000  1.924639000     0.299978432 -0.106058350  0.000000000
     1.111191000  3.142924000  1.924639000     0.000000000  0.318175050  0.000000000
     0.000000000  0.000000000  3.849278000    -0.149989216 -0.106058350  0.259788979

  length of vectors
     3.849278403  3.849279412  3.849278000     0.318175161  0.318175050  0.318175190


 FORCES acting on ions
    electron-ion (+dipol)            ewald-force                    non-local-force                 convergence-correction
 -----------------------------------------------------------------------------------------------
   0.539E-05 0.246E-04 0.301E-06   -.892E-05 -.418E-04 -.429E-15   0.114E-15 -.627E-16 -.117E-17   -.800E-09 0.413E-10 -.165E-08
   -.539E-05 -.246E-04 -.301E-06   0.892E-05 0.418E-04 0.408E-15   -.904E-16 0.489E-16 -.209E-15   0.800E-09 -.413E-10 0.165E-08
 -----------------------------------------------------------------------------------------------
   -.672E-14 0.655E-14 -.163E-13   -.341E-15 0.468E-16 -.212E-16   0.236E-16 -.138E-16 -.210E-15   -.200E-14 -.119E-14 -.147E-14
 
 
 POSITION                                       TOTAL-FORCE (eV/Angst)
 -----------------------------------------------------------------------------------
      3.88917      2.75006      6.73624        -0.000000     -0.000000     -0.000000
      0.55560      0.39287      0.96232         0.000000      0.000000      0.000000
 -----------------------------------------------------------------------------------
    total drift:                               -0.000000      0.000000     -0.000000


--------------------------------------------------------------------------------------------------------



  FREE ENERGIE OF THE ION-ELECTRON SYSTEM (eV)
  ---------------------------------------------------
  free  energy   TOTEN  =       -11.43035669 eV

  energy  without entropy=      -11.42948224  energy(sigma->0) =      -11.42991946
 


--------------------------------------------------------------------------------------------------------


    POTLOK:  cpu time    0.0329: real time    0.0296


--------------------------------------------------------------------------------------------------------


 writing wavefunctions
     LOOP+:  cpu time  271.4938: real time  271.9331
    4ORBIT:  cpu time    0.0000: real time    0.0000
 


 total charge     
 
# of ion       s       p       d       tot
------------------------------------------
    1        0.745   0.941   0.000   1.686
    2        0.745   0.941   0.000   1.686
--------------------------------------------------
tot          1.490   1.882   0.000   3.372
 

 total amount of memory used by VASP MPI-rank0   534567. kBytes
=======================================================================

   base      :      30000. kBytes
   nonl-proj :     123587. kBytes
   grid      :       6018. kBytes
   one-center:          6. kBytes
   wavefun   :     374956. kBytes
 
  
  
 General timing and accounting informations for this job:
 ========================================================
  
                  Total CPU time used (sec):      274.451
                            User time (sec):      274.069
                          System time (sec):        0.382
                         Elapsed time (sec):      274.601
  
                   Maximum memory used (kb):      577000.
                   Average memory used (kb):           0.
  
                          Minor page faults:       153475
                          Major page faults:           12
                 Voluntary context switches:           26
