 vasp.5.4.4.18Apr17-6-g9f103f2a35 (build Sep 03 2019 17:22:03) complex          
  
 executed on             LinuxIFC date 2024.12.15  14:44:05
 serial version


--------------------------------------------------------------------------------------------------------


 INCAR:
 POTCAR:    PAW_PBE Si 05Jan2001                  
 POTCAR:    PAW_PBE Si 05Jan2001                  
   SHA256 =  79d9987ad8750f624c4d6acb2a16d13abf6a777132adc04dc6c8399be72b42bb Si
   COPYR  = (c) Copyright 05Jan2001 Georg Kresse                                
   COPYR  = This file is part of the software VASP. Any use, copying, and all ot
   COPYR  = If you do not have a valid VASP license, you may not use, copy or di
   VRHFIN =Si: s2p2                                                             
   LEXCH  = PE                                                                  
   EATOM  =   103.0669 eV,    7.5752 Ry                                         
                                                                                
   TITEL  = PAW_PBE Si 05Jan2001                                                
   LULTRA =        F    use ultrasoft PP ?                                      
   IUNSCR =        1    unscreen: 0-lin 1-nonlin 2-no                           
   RPACOR =    1.500    partial core radius                                     
   POMASS =   28.085; ZVAL   =    4.000    mass and valenz                      
   RCORE  =    1.900    outmost cutoff radius                                   
   RWIGS  =    2.480; RWIGS  =    1.312    wigner-seitz radius (au A)           
   ENMAX  =  245.345; ENMIN  =  184.009 eV                                      
   ICORE  =        2    local potential                                         
   LCOR   =        T    correct aug charges                                     
   LPAW   =        T    paw PP                                                  
   EAUG   =  322.069                                                            
   DEXC   =    0.000                                                            
   RMAX   =    1.950    core radius for proj-oper                               
   RAUG   =    1.300    factor for augmentation sphere                          
   RDEP   =    1.993    radius for radial grids                                 
   RDEPT  =    1.837    core radius for aug-charge                              
                                                                                
   Atomic configuration                                                         
    6 entries                                                                   
     n  l   j            E        occ.                                          
     1  0  0.50     -1785.8828   2.0000                                         
     2  0  0.50      -139.4969   2.0000                                         
     2  1  1.50       -95.5546   6.0000                                         
     3  0  0.50       -10.8127   2.0000                                         
     3  1  0.50        -4.0811   2.0000                                         
     3  2  1.50        -4.0817   0.0000                                         
   Description                                                                  
     l       E           TYP  RCUT    TYP  RCUT                                 
     0    -10.8127223     23  1.900                                             
     0     -7.6451159     23  1.900                                             
     1     -4.0811372     23  1.900                                             
     1      2.4879257     23  1.900                                             
     2     -4.0817478      7  1.900                                             
  local pseudopotential read in
  partial core-charges read in
  partial kinetic energy density read in
  atomic valenz-charges read in
  non local Contribution for L=           0  read in
    real space projection operators read in
  non local Contribution for L=           0  read in
    real space projection operators read in
  non local Contribution for L=           1  read in
    real space projection operators read in
  non local Contribution for L=           1  read in
    real space projection operators read in
    PAW grid and wavefunctions read in
 
   number of l-projection  operators is LMAX  =           4
   number of lm-projection operators is LMMAX =           8
 
  PAW_PBE Si 05Jan2001                  :
 energy of atom  1       EATOM= -103.0669
 kinetic energy error for atom=    0.0003 (will be added to EATOM!!)
 
 
 POSCAR: i2a=[Si] ; Si                           
  positions in direct lattice
  No initial velocities read in
 exchange correlation table for  LEXCH =        8
   RHO(1)=    0.500       N(1)  =     2000
   RHO(2)=  100.500       N(2)  =     4000
 


--------------------------------------------------------------------------------------------------------


 ion  position               nearest neighbor table
   1  0.875  0.875  0.875-   2 2.36   2 2.36   2 2.36   2 2.36
   2  0.125  0.125  0.125-   1 2.36   1 2.36   1 2.36   1 2.36
 
  LATTYP: Found a face centered cubic cell.
 ALAT       =     5.4437011529
  
  Lattice vectors:
  
 A1 = (   3.3335730000,   0.0000000000,   1.9246390000)
 A2 = (   1.1111910000,   3.1429240000,   1.9246390000)
 A3 = (   0.0000000000,   0.0000000000,   3.8492780000)


Analysis of symmetry for initial positions (statically):
=====================================================================
 Subroutine PRICEL returns:
 Original cell was already a primitive cell.
 

 Routine SETGRP: Setting up the symmetry group for a 
 face centered cubic supercell.


 Subroutine GETGRP returns: Found 48 space group operations
 (whereof 12 operations were pure point group operations)
 out of a pool of 48 trial point group operations.


The static configuration has the point symmetry D_3d.
 The point group associated with its full space group is O_h .


Analysis of symmetry for dynamics (positions and initial velocities):
=====================================================================
 Subroutine PRICEL returns:
 Original cell was already a primitive cell.
 

 Routine SETGRP: Setting up the symmetry group for a 
 face centered cubic supercell.


 Subroutine GETGRP returns: Found 48 space group operations
 (whereof 12 operations were pure point group operations)
 out of a pool of 48 trial point group operations.


The dynamic configuration has the point symmetry D_3d.
 The point group associated with its full space group is O_h .


 Subroutine INISYM returns: Found 48 space group operations
 (whereof 12 operations are pure point group operations),
 and found     1 'primitive' translations

 
 
 KPOINTS: Explicit k-point list                   
  k-points in reciprocal lattice
Space group operators:
 irot       det(A)        alpha          n_x          n_y          n_z        tau_x        tau_y        tau_z
    1     1.000000     0.000000     1.000000     0.000000     0.000000     0.000000     0.000000     0.000000
    2    -1.000000     0.000000     1.000000     0.000000     0.000000     0.000000     0.000000     0.000000
    3     1.000000   120.000000    -0.471404    -0.333333    -0.816497     0.000000     0.000000     0.000000
    4    -1.000000   120.000000    -0.471404    -0.333333    -0.816497     0.000000     0.000000     0.000000
    5     1.000000   120.000000     0.471405     0.333333     0.816496     0.000000     0.000000     0.000000
    6    -1.000000   120.000000     0.471405     0.333333     0.816496     0.000000     0.000000     0.000000
    7     1.000000   180.000000     0.288675     0.816496    -0.500000     0.000000     0.000000     0.000000
    8    -1.000000   180.000000     0.288675     0.816496    -0.500000     0.000000     0.000000     0.000000
    9     1.000000   180.000000     0.577350    -0.816496     0.000000     0.000000     0.000000     0.000000
   10    -1.000000   180.000000     0.577350    -0.816496     0.000000     0.000000     0.000000     0.000000
   11     1.000000   180.000000     0.866025    -0.000000    -0.500000     0.000000     0.000000     0.000000
   12    -1.000000   180.000000     0.866025    -0.000000    -0.500000     0.000000     0.000000     0.000000
   13     1.000000    90.000000    -0.816497    -0.577350    -0.000000     0.500000     0.000000     0.000000
   14    -1.000000    90.000000    -0.816497    -0.577350    -0.000000     0.500000     0.000000     0.000000
   15     1.000000   180.000000     0.866025    -0.000000     0.500000     0.500000     0.000000     0.000000
   16    -1.000000   180.000000     0.866025    -0.000000     0.500000     0.500000     0.000000     0.000000
   17     1.000000    90.000000     0.408248    -0.577350     0.707107     0.500000     0.000000     0.000000
   18    -1.000000    90.000000     0.408248    -0.577350     0.707107     0.500000     0.000000     0.000000
   19     1.000000   180.000000     0.816497     0.577350     0.000000     0.000000     0.000000     0.500000
   20    -1.000000   180.000000     0.816497     0.577350     0.000000     0.000000     0.000000     0.500000
   21     1.000000   120.000000     0.942809    -0.333333     0.000000     0.000000     0.000000     0.500000
   22    -1.000000   120.000000     0.942809    -0.333333     0.000000     0.000000     0.000000     0.500000
   23     1.000000   120.000000     0.000000    -1.000000     0.000000     0.000000     0.000000     0.500000
   24    -1.000000   120.000000     0.000000    -1.000000     0.000000     0.000000     0.000000     0.500000
   25     1.000000    90.000000     0.816497     0.577350    -0.000000     0.000000     0.500000     0.000000
   26    -1.000000    90.000000     0.816497     0.577350    -0.000000     0.000000     0.500000     0.000000
   27     1.000000    90.000000     0.408249    -0.577350    -0.707107     0.000000     0.500000     0.000000
   28    -1.000000    90.000000     0.408249    -0.577350    -0.707107     0.000000     0.500000     0.000000
   29     1.000000   179.999999     0.288675     0.816496     0.500000     0.000000     0.500000     0.000000
   30    -1.000000   179.999999     0.288675     0.816496     0.500000     0.000000     0.500000     0.000000
   31     1.000000   120.000000     0.000000     1.000000     0.000000     0.500000     0.000000     0.000000
   32    -1.000000   120.000000     0.000000     1.000000     0.000000     0.500000     0.000000     0.000000
   33     1.000000   120.000000     0.471404     0.333333    -0.816497     0.500000     0.000000     0.000000
   34    -1.000000   120.000000     0.471404     0.333333    -0.816497     0.500000     0.000000     0.000000
   35     1.000000   180.000000    -0.408248     0.577350     0.707107     0.500000     0.000000     0.000000
   36    -1.000000   180.000000    -0.408248     0.577350     0.707107     0.500000     0.000000     0.000000
   37     1.000000    90.000000    -0.408249     0.577350    -0.707107     0.000000     0.000000     0.500000
   38    -1.000000    90.000000    -0.408249     0.577350    -0.707107     0.000000     0.000000     0.500000
   39     1.000000   180.000000    -0.000000     0.000000     1.000000     0.000000     0.000000     0.500000
   40    -1.000000   180.000000    -0.000000     0.000000     1.000000     0.000000     0.000000     0.500000
   41     1.000000    90.000000    -0.408248     0.577350     0.707107     0.000000     0.000000     0.500000
   42    -1.000000    90.000000    -0.408248     0.577350     0.707107     0.000000     0.000000     0.500000
   43     1.000000   120.000000    -0.942809     0.333333     0.000000     0.000000     0.500000     0.000000
   44    -1.000000   120.000000    -0.942809     0.333333     0.000000     0.000000     0.500000     0.000000
   45     1.000000   180.000000    -0.408248     0.577350    -0.707107     0.000000     0.500000     0.000000
   46    -1.000000   180.000000    -0.408248     0.577350    -0.707107     0.000000     0.500000     0.000000
   47     1.000000   120.000000    -0.471405    -0.333333     0.816496     0.000000     0.500000     0.000000
   48    -1.000000   120.000000    -0.471405    -0.333333     0.816496     0.000000     0.500000     0.000000


--------------------------------------------------------------------------------------------------------




 Dimension of arrays:
   k-points           NKPTS =     19   k-points in BZ     NKDIM =     19   number of bands    NBANDS=     12
   number of dos      NEDOS =    301   number of ions     NIONS =      2
   non local maximal  LDIM  =      4   non local SUM 2l+1 LMDIM =      8
   total plane-waves  NPLWV =  13824
   max r-space proj   IRMAX =      1   max aug-charges    IRDMAX=  11659
   dimension x,y,z NGX =    24 NGY =   24 NGZ =   24
   dimension x,y,z NGXF=    48 NGYF=   48 NGZF=   48
   support grid    NGXF=    48 NGYF=   48 NGZF=   48
   ions per type =               2
   NGX,Y,Z   is equivalent  to a cutoff of  10.37, 10.37, 10.37 a.u.
   NGXF,Y,Z  is equivalent  to a cutoff of  20.73, 20.73, 20.73 a.u.

 SYSTEM =  auto Fully inherited from the final st  
 POSCAR =  i2a=[Si] ; Si                           

 Startparameter for this run:
   NWRITE =      2    write-flag & timer
   PREC   = normal    normal or accurate (medium, high low for compatibility)
   ISTART =      0    job   : 0-new  1-cont  2-samecut
   ICHARG =      2    charge: 1-file 2-atom 10-const
   ISPIN  =      1    spin polarized calculation?
   LNONCOLLINEAR =      F non collinear calculations
   LSORBIT =      F    spin-orbit coupling
   INIWAV =      1    electr: 0-lowe 1-rand  2-diag
   LASPH  =      F    aspherical Exc in radial PAW
   METAGGA=      F    non-selfconsistent MetaGGA calc.

 Electronic Relaxation 1
   ENCUT  =  600.0 eV  44.10 Ry    6.64 a.u.   7.69  7.69  7.69*2*pi/ulx,y,z
   ENINI  =  600.0     initial cutoff
   ENAUG  =  700.0 eV  augmentation charge cutoff
   NELM   =     60;   NELMIN=  2; NELMDL= -5     # of ELM steps 
   EDIFF  = 0.1E-04   stopping-criterion for ELM
   LREAL  =      F    real-space projection
   NLSPLINE    = F    spline interpolate recip. space projectors
   LCOMPAT=      F    compatible to vasp.4.4
   GGA_COMPAT  = T    GGA compatible to vasp.4.4-vasp.4.6
   LMAXPAW     = -100 max onsite density
   LMAXMIX     =    2 max onsite mixed and CHGCAR
   VOSKOWN=      0    Vosko Wilk Nusair interpolation
   ROPT   =    0.00000
 Ionic relaxation
   EDIFFG = 0.1E-03   stopping-criterion for IOM
   NSW    =      0    number of steps for IOM
   NBLOCK =      1;   KBLOCK =      1    inner block; outer block 
   IBRION =     -1    ionic relax: 0-MD 1-quasi-New 2-CG
   NFREE  =      0    steps in history (QN), initial steepest desc. (CG)
   ISIF   =      2    stress and relaxation
   IWAVPR =      0    prediction:  0-non 1-charg 2-wave 3-comb
   ISYM   =      2    0-nonsym 1-usesym 2-fastsym
   LCORR  =      T    Harris-Foulkes like correction to forces

   POTIM  = 0.5000    time-step for ionic-motion
   TEIN   =    0.0    initial temperature
   TEBEG  =    0.0;   TEEND  =   0.0 temperature during run
   SMASS  =  -3.00    Nose mass-parameter (am)
   estimated Nose-frequenzy (Omega)   =  0.10E-29 period in steps =****** mass=  -0.339E-27a.u.
   SCALEE = 1.0000    scale energy and forces
   NPACO  =    256;   APACO  = 16.0  distance and # of slots for P.C.
   PSTRESS=    0.0 pullay stress

  Mass of Ions in am
   POMASS =  28.09
  Ionic Valenz
   ZVAL   =   4.00
  Atomic Wigner-Seitz radii
   RWIGS  =  -1.00
  virtual crystal weights 
   VCA    =   1.00
   NELECT =       8.0000    total number of electrons
   NUPDOWN=      -1.0000    fix difference up-down

 DOS related values:
   EMIN   =  10.00;   EMAX   =-10.00  energy-range for DOS
   EFERMI =   0.00
   ISMEAR =     0;   SIGMA  =   0.20  broadening in eV -4-tet -1-fermi 0-gaus

 Electronic relaxation 2 (details)
   IALGO  =     38    algorithm
   LDIAG  =      T    sub-space diagonalisation (order eigenvalues)
   LSUBROT=      F    optimize rotation matrix (better conditioning)
   TURBO    =      0    0=normal 1=particle mesh
   IRESTART =      0    0=no restart 2=restart with 2 vectors
   NREBOOT  =      0    no. of reboots
   NMIN     =      0    reboot dimension
   EREF     =   0.00    reference energy to select bands
   IMIX   =      4    mixing-type and parameters
     AMIX     =   0.40;   BMIX     =  1.00
     AMIX_MAG =   1.60;   BMIX_MAG =  1.00
     AMIN     =   0.10
     WC   =   100.;   INIMIX=   1;  MIXPRE=   1;  MAXMIX= -45

 Intra band minimization:
   WEIMIN = 0.0000     energy-eigenvalue tresh-hold
   EBREAK =  0.21E-06  absolut break condition
   DEPER  =   0.30     relativ break condition  

   TIME   =   0.40     timestep for ELM

  volume/ion in A,a.u.               =      20.16       136.08
  Fermi-wavevector in a.u.,A,eV,Ry     =   0.954766  1.804247 12.402783  0.911579
  Thomas-Fermi vector in A             =   2.083543
 
 Write flags
   LWAVE        =      T    write WAVECAR
   LDOWNSAMPLE  =      F    k-point downsampling of WAVECAR
   LCHARG       =      T    write CHGCAR
   LVTOT        =      F    write LOCPOT, total local potential
   LVHAR        =      F    write LOCPOT, Hartree potential only
   LELF         =      F    write electronic localiz. function (ELF)
   LORBIT       =     11    0 simple, 1 ext, 2 COOP (PROOUT), +10 PAW based schemes


 Dipole corrections
   LMONO  =      F    monopole corrections only (constant potential shift)
   LDIPOL =      F    correct potential (dipole corrections)
   IDIPOL =      0    1-x, 2-y, 3-z, 4-all directions 
   EPSILON=  1.0000000 bulk dielectric constant

 Exchange correlation treatment:
   GGA     =    --    GGA type
   LEXCH   =     8    internal setting for exchange type
   VOSKOWN=      0    Vosko Wilk Nusair interpolation
   LHFCALC =     F    Hartree Fock is set to
   LHFONE  =     F    Hartree Fock one center treatment
   AEXX    =    0.0000 exact exchange contribution

 Linear response parameters
   LEPSILON=     F    determine dielectric tensor
   LRPA    =     F    only Hartree local field effects (RPA)
   LNABLA  =     F    use nabla operator in PAW spheres
   LVEL    =     F    velocity operator in full k-point grid
   LINTERFAST=   F  fast interpolation
   KINTER  =     0    interpolate to denser k-point grid
   CSHIFT  =0.1000    complex shift for real part using Kramers Kronig
   OMEGAMAX=  -1.0    maximum frequency
   DEG_THRESHOLD= 0.2000000E-02 threshold for treating states as degnerate
   RTIME   =   -0.100 relaxation time in fs
  (WPLASMAI=    0.000 imaginary part of plasma frequency in eV, 0.658/RTIME)
   DFIELD  = 0.0000000 0.0000000 0.0000000 field for delta impulse in time
 
 Orbital magnetization related:
   ORBITALMAG=     F  switch on orbital magnetization
   LCHIMAG   =     F  perturbation theory with respect to B field
   DQ        =  0.001000  dq finite difference perturbation B field
   LLRAUG    =     F  two centre corrections for induced B field



--------------------------------------------------------------------------------------------------------


 Static calculation
 charge density and potential will be updated during run
 non-spin polarized calculation
 Variant of blocked Davidson
 Davidson routine will perform the subspace rotation
 perform sub-space diagonalisation
    after iterative eigenvector-optimisation
 modified Broyden-mixing scheme, WC =      100.0
 initial mixing is a Kerker type mixing with AMIX =  0.4000 and BMIX =      1.0000
 Hartree-type preconditioning will be used
 using additional bands            8
 reciprocal scheme for non local part
 use partial core corrections
 calculate Harris-corrections to forces 
   (improved forces if not selfconsistent)
 use gradient corrections 
 use of overlap-Matrix (Vanderbilt PP)
 Gauss-broadening in eV      SIGMA  =   0.20


--------------------------------------------------------------------------------------------------------


  energy-cutoff  :      600.00
  volume of cell :       40.33
      direct lattice vectors                 reciprocal lattice vectors
     3.333573000  0.000000000  1.924639000     0.299978432 -0.106058350  0.000000000
     1.111191000  3.142924000  1.924639000     0.000000000  0.318175050  0.000000000
     0.000000000  0.000000000  3.849278000    -0.149989216 -0.106058350  0.259788979

  length of vectors
     3.849278403  3.849279412  3.849278000     0.318175161  0.318175050  0.318175190


 
 k-points in units of 2pi/SCALE and weight: Explicit k-point list                   
   0.07499461  0.05302917  0.12989449       0.053
   0.07199482  0.05408976  0.12989449       0.053
   0.07799439  0.05196859  0.12989449       0.053
   0.07499461  0.04984742  0.12989449       0.053
   0.07499461  0.05621093  0.12989449       0.053
   0.07649450  0.05408976  0.12729660       0.053
   0.07349472  0.05196859  0.13249238       0.053
   0.07199482  0.05090801  0.12989449       0.053
   0.07799439  0.05515034  0.12989449       0.053
   0.07799439  0.04878684  0.12989449       0.053
   0.07199482  0.05727151  0.12989449       0.053
   0.07349472  0.05515034  0.12729660       0.053
   0.07649450  0.05090801  0.13249238       0.053
   0.07949428  0.05302917  0.12729660       0.053
   0.07049493  0.05302917  0.13249238       0.053
   0.07649450  0.05090801  0.12729660       0.053
   0.07349472  0.05515034  0.13249238       0.053
   0.07649450  0.05727151  0.12729660       0.053
   0.07349472  0.04878684  0.13249238       0.053
 
 k-points in reciprocal lattice and weights: Explicit k-point list                   
   0.50000000  0.50000000  0.50000000       0.053
   0.49000000  0.50000000  0.50000000       0.053
   0.51000000  0.50000000  0.50000000       0.053
   0.50000000  0.49000000  0.50000000       0.053
   0.50000000  0.51000000  0.50000000       0.053
   0.50000000  0.50000000  0.49000000       0.053
   0.50000000  0.50000000  0.51000000       0.053
   0.49000000  0.49000000  0.50000000       0.053
   0.51000000  0.51000000  0.50000000       0.053
   0.51000000  0.49000000  0.50000000       0.053
   0.49000000  0.51000000  0.50000000       0.053
   0.49000000  0.50000000  0.49000000       0.053
   0.51000000  0.50000000  0.51000000       0.053
   0.51000000  0.50000000  0.49000000       0.053
   0.49000000  0.50000000  0.51000000       0.053
   0.50000000  0.49000000  0.49000000       0.053
   0.50000000  0.51000000  0.51000000       0.053
   0.50000000  0.51000000  0.49000000       0.053
   0.50000000  0.49000000  0.51000000       0.053
 
 position of ions in fractional coordinates (direct lattice) 
   0.87500000  0.87500000  0.87500000
   0.12500000  0.12500000  0.12500000
 
 position of ions in cartesian coordinates  (Angst):
   3.88916850  2.75005850  6.73623650
   0.55559550  0.39286550  0.96231950
 


--------------------------------------------------------------------------------------------------------


 k-point  1 :   0.5000 0.5000 0.5000  plane waves:    1350
 k-point  2 :   0.4900 0.5000 0.5000  plane waves:    1350
 k-point  3 :   0.5100 0.5000 0.5000  plane waves:    1350
 k-point  4 :   0.5000 0.4900 0.5000  plane waves:    1350
 k-point  5 :   0.5000 0.5100 0.5000  plane waves:    1350
 k-point  6 :   0.5000 0.5000 0.4900  plane waves:    1350
 k-point  7 :   0.5000 0.5000 0.5100  plane waves:    1350
 k-point  8 :   0.4900 0.4900 0.5000  plane waves:    1350
 k-point  9 :   0.5100 0.5100 0.5000  plane waves:    1350
 k-point 10 :   0.5100 0.4900 0.5000  plane waves:    1352
 k-point 11 :   0.4900 0.5100 0.5000  plane waves:    1352
 k-point 12 :   0.4900 0.5000 0.4900  plane waves:    1350
 k-point 13 :   0.5100 0.5000 0.5100  plane waves:    1350
 k-point 14 :   0.5100 0.5000 0.4900  plane waves:    1352
 k-point 15 :   0.4900 0.5000 0.5100  plane waves:    1352
 k-point 16 :   0.5000 0.4900 0.4900  plane waves:    1350
 k-point 17 :   0.5000 0.5100 0.5100  plane waves:    1350
 k-point 18 :   0.5000 0.5100 0.4900  plane waves:    1352
 k-point 19 :   0.5000 0.4900 0.5100  plane waves:    1352

 maximum number of plane-waves:      1352
 maximum index in each direction: 
   IXMAX=    7   IYMAX=    7   IZMAX=    7
   IXMIN=   -8   IYMIN=   -8   IZMIN=   -8


 total amount of memory used by VASP MPI-rank0    42701. kBytes
=======================================================================

   base      :      30000. kBytes
   nonl-proj :       1687. kBytes
   grid      :       6018. kBytes
   one-center:          6. kBytes
   wavefun   :       4990. kBytes
 
     INWAV:  cpu time    0.0000: real time    0.0000
 Broyden mixing: mesh for mixing (old mesh)
   NGX = 15   NGY = 15   NGZ = 15
  (NGX  = 48   NGY  = 48   NGZ  = 48)
  gives a total of   3375 points

 initial charge density was supplied:
 charge density of overlapping atoms calculated
 number of electron       8.0000000 magnetization 
 keeping initial charge density in first step


--------------------------------------------------------------------------------------------------------


 Maximum index for augmentation-charges        11057 (set IRDMAX)


--------------------------------------------------------------------------------------------------------


 First call to EWALD:  gamma=   0.517
 Maximum number of real-space cells 3x 3x 3
 Maximum number of reciprocal cells 3x 3x 3

    FEWALD:  cpu time    0.0010: real time    0.0009


--------------------------------------- Iteration      1(   1)  ---------------------------------------


    POTLOK:  cpu time    0.0327: real time    0.0297
    SETDIJ:  cpu time    0.0022: real time    0.0020
     EDDAV:  cpu time    0.2838: real time    0.2562
       DOS:  cpu time    0.0008: real time    0.0007
    --------------------------------------------
      LOOP:  cpu time    0.3195: real time    0.2885

 eigenvalue-minimisations  :   456
 total energy-change (2. order) : 0.1087981E+02  (-0.3139151E+03)
 number of electron       8.0000000 magnetization 
 augmentation part        8.0000000 magnetization 

 Free energy of the ion-electron system (eV)
  ---------------------------------------------------
  alpha Z        PSCENC =         3.33880741
  Ewald energy   TEWEN  =      -227.98820643
  -Hartree energ DENC   =       -11.11484531
  -exchange      EXHF   =         0.00000000
  -V(xc)+E(xc)   XCENC  =       -18.63153637
  PAW double counting   =       176.24759923     -141.06103558
  entropy T*S    EENTRO =        -0.01598579
  eigenvalues    EBANDS =        23.97189747
  atomic energy  EATOM  =       206.13311910
  Solvation  Ediel_sol  =         0.00000000
  ---------------------------------------------------
  free energy    TOTEN  =        10.87981373 eV

  energy without entropy =       10.89579952  energy(sigma->0) =       10.88780662


--------------------------------------------------------------------------------------------------------




--------------------------------------- Iteration      1(   2)  ---------------------------------------


     EDDAV:  cpu time    0.3674: real time    0.3307
       DOS:  cpu time    0.0007: real time    0.0006
    --------------------------------------------
      LOOP:  cpu time    0.3681: real time    0.3313

 eigenvalue-minimisations  :   648
 total energy-change (2. order) :-0.1885775E+02  (-0.1772837E+02)
 number of electron       8.0000000 magnetization 
 augmentation part        8.0000000 magnetization 

 Free energy of the ion-electron system (eV)
  ---------------------------------------------------
  alpha Z        PSCENC =         3.33880741
  Ewald energy   TEWEN  =      -227.98820643
  -Hartree energ DENC   =       -11.11484531
  -exchange      EXHF   =         0.00000000
  -V(xc)+E(xc)   XCENC  =       -18.63153637
  PAW double counting   =       176.24759923     -141.06103558
  entropy T*S    EENTRO =        -0.00000000
  eigenvalues    EBANDS =         5.09816356
  atomic energy  EATOM  =       206.13311910
  Solvation  Ediel_sol  =         0.00000000
  ---------------------------------------------------
  free energy    TOTEN  =        -7.97793439 eV

  energy without entropy =       -7.97793439  energy(sigma->0) =       -7.97793439


--------------------------------------------------------------------------------------------------------




--------------------------------------- Iteration      1(   3)  ---------------------------------------


     EDDAV:  cpu time    0.3359: real time    0.3023
       DOS:  cpu time    0.0007: real time    0.0007
    --------------------------------------------
      LOOP:  cpu time    0.3366: real time    0.3030

 eigenvalue-minimisations  :   580
 total energy-change (2. order) :-0.7140676E+00  (-0.7111912E+00)
 number of electron       8.0000000 magnetization 
 augmentation part        8.0000000 magnetization 

 Free energy of the ion-electron system (eV)
  ---------------------------------------------------
  alpha Z        PSCENC =         3.33880741
  Ewald energy   TEWEN  =      -227.98820643
  -Hartree energ DENC   =       -11.11484531
  -exchange      EXHF   =         0.00000000
  -V(xc)+E(xc)   XCENC  =       -18.63153637
  PAW double counting   =       176.24759923     -141.06103558
  entropy T*S    EENTRO =        -0.00000000
  eigenvalues    EBANDS =         4.38409592
  atomic energy  EATOM  =       206.13311910
  Solvation  Ediel_sol  =         0.00000000
  ---------------------------------------------------
  free energy    TOTEN  =        -8.69200203 eV

  energy without entropy =       -8.69200203  energy(sigma->0) =       -8.69200203


--------------------------------------------------------------------------------------------------------




--------------------------------------- Iteration      1(   4)  ---------------------------------------


     EDDAV:  cpu time    0.3531: real time    0.3178
       DOS:  cpu time    0.0007: real time    0.0006
    --------------------------------------------
      LOOP:  cpu time    0.3538: real time    0.3184

 eigenvalue-minimisations  :   616
 total energy-change (2. order) :-0.4924510E-02  (-0.4923950E-02)
 number of electron       8.0000000 magnetization 
 augmentation part        8.0000000 magnetization 

 Free energy of the ion-electron system (eV)
  ---------------------------------------------------
  alpha Z        PSCENC =         3.33880741
  Ewald energy   TEWEN  =      -227.98820643
  -Hartree energ DENC   =       -11.11484531
  -exchange      EXHF   =         0.00000000
  -V(xc)+E(xc)   XCENC  =       -18.63153637
  PAW double counting   =       176.24759923     -141.06103558
  entropy T*S    EENTRO =        -0.00000000
  eigenvalues    EBANDS =         4.37917141
  atomic energy  EATOM  =       206.13311910
  Solvation  Ediel_sol  =         0.00000000
  ---------------------------------------------------
  free energy    TOTEN  =        -8.69692654 eV

  energy without entropy =       -8.69692654  energy(sigma->0) =       -8.69692654


--------------------------------------------------------------------------------------------------------




--------------------------------------- Iteration      1(   5)  ---------------------------------------


     EDDAV:  cpu time    0.3363: real time    0.3027
       DOS:  cpu time    0.0007: real time    0.0006
    CHARGE:  cpu time    0.0154: real time    0.0139
    MIXING:  cpu time    0.0011: real time    0.0010
    --------------------------------------------
      LOOP:  cpu time    0.3535: real time    0.3181

 eigenvalue-minimisations  :   580
 total energy-change (2. order) :-0.2921904E-04  (-0.2921798E-04)
 number of electron       7.9999999 magnetization 
 augmentation part       -0.4349265 magnetization 

 Broyden mixing:
  rms(total) = 0.55317E+00    rms(broyden)= 0.55317E+00
  rms(prec ) = 0.12345E+01
  weight for this iteration     100.00

 Free energy of the ion-electron system (eV)
  ---------------------------------------------------
  alpha Z        PSCENC =         3.33880741
  Ewald energy   TEWEN  =      -227.98820643
  -Hartree energ DENC   =       -11.11484531
  -exchange      EXHF   =         0.00000000
  -V(xc)+E(xc)   XCENC  =       -18.63153637
  PAW double counting   =       176.24759923     -141.06103558
  entropy T*S    EENTRO =        -0.00000000
  eigenvalues    EBANDS =         4.37914220
  atomic energy  EATOM  =       206.13311910
  Solvation  Ediel_sol  =         0.00000000
  ---------------------------------------------------
  free energy    TOTEN  =        -8.69695576 eV

  energy without entropy =       -8.69695576  energy(sigma->0) =       -8.69695576


--------------------------------------------------------------------------------------------------------




--------------------------------------- Iteration      1(   6)  ---------------------------------------


    POTLOK:  cpu time    0.0311: real time    0.0279
    SETDIJ:  cpu time    0.0021: real time    0.0019
     EDDAV:  cpu time    0.2908: real time    0.2617
       DOS:  cpu time    0.0007: real time    0.0006
    CHARGE:  cpu time    0.0150: real time    0.0135
    MIXING:  cpu time    0.0012: real time    0.0011
    --------------------------------------------
      LOOP:  cpu time    0.3408: real time    0.3067

 eigenvalue-minimisations  :   476
 total energy-change (2. order) : 0.2441258E+00  (-0.1139393E-01)
 number of electron       7.9999999 magnetization 
 augmentation part       -0.4258444 magnetization 

 Broyden mixing:
  rms(total) = 0.34148E+00    rms(broyden)= 0.34148E+00
  rms(prec ) = 0.73767E+00
  weight for this iteration     100.00

 eigenvalues of (default mixing * dielectric matrix)
  average eigenvalue GAMMA=   2.5926
  2.5926

 Free energy of the ion-electron system (eV)
  ---------------------------------------------------
  alpha Z        PSCENC =         3.33880741
  Ewald energy   TEWEN  =      -227.98820643
  -Hartree energ DENC   =       -13.27136865
  -exchange      EXHF   =         0.00000000
  -V(xc)+E(xc)   XCENC  =       -18.31757697
  PAW double counting   =       388.09616056     -353.04844987
  entropy T*S    EENTRO =        -0.00000000
  eigenvalues    EBANDS =         6.60468491
  atomic energy  EATOM  =       206.13311910
  Solvation  Ediel_sol  =         0.00000000
  ---------------------------------------------------
  free energy    TOTEN  =        -8.45282995 eV

  energy without entropy =       -8.45282995  energy(sigma->0) =       -8.45282995


--------------------------------------------------------------------------------------------------------




--------------------------------------- Iteration      1(   7)  ---------------------------------------


    POTLOK:  cpu time    0.0307: real time    0.0277
    SETDIJ:  cpu time    0.0020: real time    0.0018
     EDDAV:  cpu time    0.3003: real time    0.2704
       DOS:  cpu time    0.0007: real time    0.0006
    CHARGE:  cpu time    0.0149: real time    0.0135
    MIXING:  cpu time    0.0012: real time    0.0011
    --------------------------------------------
      LOOP:  cpu time    0.3499: real time    0.3150

 eigenvalue-minimisations  :   500
 total energy-change (2. order) : 0.1093251E+00  (-0.2295336E-01)
 number of electron       7.9999999 magnetization 
 augmentation part       -0.4143657 magnetization 

 Broyden mixing:
  rms(total) = 0.27447E-01    rms(broyden)= 0.27447E-01
  rms(prec ) = 0.56786E-01
  weight for this iteration     100.00

 eigenvalues of (default mixing * dielectric matrix)
  average eigenvalue GAMMA=   2.1301
  1.9456  2.3146

 Free energy of the ion-electron system (eV)
  ---------------------------------------------------
  alpha Z        PSCENC =         3.33880741
  Ewald energy   TEWEN  =      -227.98820643
  -Hartree energ DENC   =       -17.00850059
  -exchange      EXHF   =         0.00000000
  -V(xc)+E(xc)   XCENC  =       -17.76346964
  PAW double counting   =       917.05816035     -882.19363914
  entropy T*S    EENTRO =        -0.00000000
  eigenvalues    EBANDS =        10.08022412
  atomic energy  EATOM  =       206.13311910
  Solvation  Ediel_sol  =         0.00000000
  ---------------------------------------------------
  free energy    TOTEN  =        -8.34350481 eV

  energy without entropy =       -8.34350481  energy(sigma->0) =       -8.34350481


--------------------------------------------------------------------------------------------------------




--------------------------------------- Iteration      1(   8)  ---------------------------------------


    POTLOK:  cpu time    0.0308: real time    0.0278
    SETDIJ:  cpu time    0.0022: real time    0.0020
     EDDAV:  cpu time    0.3327: real time    0.2995
       DOS:  cpu time    0.0007: real time    0.0006
    CHARGE:  cpu time    0.0149: real time    0.0134
    MIXING:  cpu time    0.0013: real time    0.0012
    --------------------------------------------
      LOOP:  cpu time    0.3827: real time    0.3445

 eigenvalue-minimisations  :   576
 total energy-change (2. order) :-0.4582442E-02  (-0.1636420E-02)
 number of electron       7.9999999 magnetization 
 augmentation part       -0.4152536 magnetization 

 Broyden mixing:
  rms(total) = 0.11198E-01    rms(broyden)= 0.11198E-01
  rms(prec ) = 0.21782E-01
  weight for this iteration     100.00

 eigenvalues of (default mixing * dielectric matrix)
  average eigenvalue GAMMA=   2.0756
  1.2067  2.8276  2.1926

 Free energy of the ion-electron system (eV)
  ---------------------------------------------------
  alpha Z        PSCENC =         3.33880741
  Ewald energy   TEWEN  =      -227.98820643
  -Hartree energ DENC   =       -16.94663075
  -exchange      EXHF   =         0.00000000
  -V(xc)+E(xc)   XCENC  =       -17.76144957
  PAW double counting   =       937.52268424     -902.62004454
  entropy T*S    EENTRO =        -0.00000000
  eigenvalues    EBANDS =         9.97363328
  atomic energy  EATOM  =       206.13311910
  Solvation  Ediel_sol  =         0.00000000
  ---------------------------------------------------
  free energy    TOTEN  =        -8.34808726 eV

  energy without entropy =       -8.34808726  energy(sigma->0) =       -8.34808726


--------------------------------------------------------------------------------------------------------




--------------------------------------- Iteration      1(   9)  ---------------------------------------


    POTLOK:  cpu time    0.0309: real time    0.0278
    SETDIJ:  cpu time    0.0019: real time    0.0017
     EDDAV:  cpu time    0.3038: real time    0.2734
       DOS:  cpu time    0.0007: real time    0.0006
    CHARGE:  cpu time    0.0150: real time    0.0135
    MIXING:  cpu time    0.0014: real time    0.0012
    --------------------------------------------
      LOOP:  cpu time    0.3537: real time    0.3183

 eigenvalue-minimisations  :   508
 total energy-change (2. order) :-0.8303767E-03  (-0.8870110E-04)
 number of electron       7.9999999 magnetization 
 augmentation part       -0.4155322 magnetization 

 Broyden mixing:
  rms(total) = 0.73501E-02    rms(broyden)= 0.73501E-02
  rms(prec ) = 0.92251E-02
  weight for this iteration     100.00

 eigenvalues of (default mixing * dielectric matrix)
  average eigenvalue GAMMA=   2.0520
  2.9004  2.2277  2.2277  0.8524

 Free energy of the ion-electron system (eV)
  ---------------------------------------------------
  alpha Z        PSCENC =         3.33880741
  Ewald energy   TEWEN  =      -227.98820643
  -Hartree energ DENC   =       -17.02975417
  -exchange      EXHF   =         0.00000000
  -V(xc)+E(xc)   XCENC  =       -17.74577574
  PAW double counting   =       956.60990302     -921.69973990
  entropy T*S    EENTRO =        -0.00000000
  eigenvalues    EBANDS =        10.03272907
  atomic energy  EATOM  =       206.13311910
  Solvation  Ediel_sol  =         0.00000000
  ---------------------------------------------------
  free energy    TOTEN  =        -8.34891763 eV

  energy without entropy =       -8.34891763  energy(sigma->0) =       -8.34891763


--------------------------------------------------------------------------------------------------------




--------------------------------------- Iteration      1(  10)  ---------------------------------------


    POTLOK:  cpu time    0.0309: real time    0.0278
    SETDIJ:  cpu time    0.0019: real time    0.0017
     EDDAV:  cpu time    0.3394: real time    0.3055
       DOS:  cpu time    0.0007: real time    0.0006
    CHARGE:  cpu time    0.0151: real time    0.0136
    MIXING:  cpu time    0.0014: real time    0.0013
    --------------------------------------------
      LOOP:  cpu time    0.3894: real time    0.3505

 eigenvalue-minimisations  :   592
 total energy-change (2. order) :-0.2844031E-04  (-0.2591917E-05)
 number of electron       7.9999999 magnetization 
 augmentation part       -0.4154533 magnetization 

 Broyden mixing:
  rms(total) = 0.16502E-02    rms(broyden)= 0.16502E-02
  rms(prec ) = 0.28957E-02
  weight for this iteration     100.00

 eigenvalues of (default mixing * dielectric matrix)
  average eigenvalue GAMMA=   2.0422
  3.2727  2.6423  2.2142  1.1684  0.9132

 Free energy of the ion-electron system (eV)
  ---------------------------------------------------
  alpha Z        PSCENC =         3.33880741
  Ewald energy   TEWEN  =      -227.98820643
  -Hartree energ DENC   =       -17.04770652
  -exchange      EXHF   =         0.00000000
  -V(xc)+E(xc)   XCENC  =       -17.74510331
  PAW double counting   =       948.46186712     -913.55555656
  entropy T*S    EENTRO =        -0.00000000
  eigenvalues    EBANDS =        10.05383311
  atomic energy  EATOM  =       206.13311910
  Solvation  Ediel_sol  =         0.00000000
  ---------------------------------------------------
  free energy    TOTEN  =        -8.34894607 eV

  energy without entropy =       -8.34894607  energy(sigma->0) =       -8.34894607


--------------------------------------------------------------------------------------------------------




--------------------------------------- Iteration      1(  11)  ---------------------------------------


    POTLOK:  cpu time    0.0312: real time    0.0281
    SETDIJ:  cpu time    0.0019: real time    0.0017
     EDDAV:  cpu time    0.3089: real time    0.2781
       DOS:  cpu time    0.0007: real time    0.0006
    CHARGE:  cpu time    0.0150: real time    0.0135
    MIXING:  cpu time    0.0015: real time    0.0013
    --------------------------------------------
      LOOP:  cpu time    0.3593: real time    0.3234

 eigenvalue-minimisations  :   520
 total energy-change (2. order) :-0.1377499E-04  (-0.2386720E-05)
 number of electron       7.9999999 magnetization 
 augmentation part       -0.4154891 magnetization 

 Broyden mixing:
  rms(total) = 0.65146E-03    rms(broyden)= 0.65146E-03
  rms(prec ) = 0.73450E-03
  weight for this iteration     100.00

 eigenvalues of (default mixing * dielectric matrix)
  average eigenvalue GAMMA=   1.8092
  3.2375  2.6419  2.1434  1.3565  0.9068  0.5688

 Free energy of the ion-electron system (eV)
  ---------------------------------------------------
  alpha Z        PSCENC =         3.33880741
  Ewald energy   TEWEN  =      -227.98820643
  -Hartree energ DENC   =       -17.04874732
  -exchange      EXHF   =         0.00000000
  -V(xc)+E(xc)   XCENC  =       -17.74517783
  PAW double counting   =       946.02339542     -911.11606826
  entropy T*S    EENTRO =        -0.00000000
  eigenvalues    EBANDS =        10.05391805
  atomic energy  EATOM  =       206.13311910
  Solvation  Ediel_sol  =         0.00000000
  ---------------------------------------------------
  free energy    TOTEN  =        -8.34895985 eV

  energy without entropy =       -8.34895985  energy(sigma->0) =       -8.34895985


--------------------------------------------------------------------------------------------------------




--------------------------------------- Iteration      1(  12)  ---------------------------------------


    POTLOK:  cpu time    0.0310: real time    0.0279
    SETDIJ:  cpu time    0.0019: real time    0.0017
     EDDAV:  cpu time    0.2706: real time    0.2436
       DOS:  cpu time    0.0007: real time    0.0006
    --------------------------------------------
      LOOP:  cpu time    0.3042: real time    0.2738

 eigenvalue-minimisations  :   436
 total energy-change (2. order) : 0.2602268E-06  (-0.2097725E-07)
 number of electron       7.9999999 magnetization 
 augmentation part       -0.4154891 magnetization 

 Free energy of the ion-electron system (eV)
  ---------------------------------------------------
  alpha Z        PSCENC =         3.33880741
  Ewald energy   TEWEN  =      -227.98820643
  -Hartree energ DENC   =       -17.04802640
  -exchange      EXHF   =         0.00000000
  -V(xc)+E(xc)   XCENC  =       -17.74536596
  PAW double counting   =       946.06274612     -911.15523541
  entropy T*S    EENTRO =        -0.00000000
  eigenvalues    EBANDS =        10.05320198
  atomic energy  EATOM  =       206.13311910
  Solvation  Ediel_sol  =         0.00000000
  ---------------------------------------------------
  free energy    TOTEN  =        -8.34895959 eV

  energy without entropy =       -8.34895959  energy(sigma->0) =       -8.34895959


--------------------------------------------------------------------------------------------------------




 average (electrostatic) potential at core
  the test charge radii are     0.9892
  (the norm of the test charge is              1.0000)
       1 -82.9001       2 -82.9001
 
 
 
 E-fermi :   5.7858     XC(G=0):  -9.2249     alpha+bet :-11.8943


 k-point     1 :       0.5000    0.5000    0.5000
  band No.  band energies     occupation 
      1      -3.6017      2.00000
      2      -0.9718      2.00000
      3       4.8091      2.00000
      4       4.8091      2.00000
      5       7.4926      0.00000
      6       9.2498      0.00000
      7       9.2498      0.00000
      8      13.6015      0.00000
      9      16.4624      0.00000
     10      16.4624      0.00000
     11      17.2480      0.00000
     12      17.3115      0.00000

 k-point     2 :       0.4900    0.5000    0.5000
  band No.  band energies     occupation 
      1      -3.6012      2.00000
      2      -0.9703      2.00000
      3       4.7983      2.00000
      4       4.8063      2.00000
      5       7.5034      0.00000
      6       9.2472      0.00000
      7       9.2552      0.00000
      8      13.6071      0.00000
      9      16.3957      0.00000
     10      16.4616      0.00000
     11      17.2515      0.00000
     12      17.2729      0.00000

 k-point     3 :       0.5100    0.5000    0.5000
  band No.  band energies     occupation 
      1      -3.6012      2.00000
      2      -0.9703      2.00000
      3       4.7983      2.00000
      4       4.8063      2.00000
      5       7.5034      0.00000
      6       9.2472      0.00000
      7       9.2552      0.00000
      8      13.6071      0.00000
      9      16.3957      0.00000
     10      16.4616      0.00000
     11      17.2505      0.00000
     12      17.2684      0.00000

 k-point     4 :       0.5000    0.4900    0.5000
  band No.  band energies     occupation 
      1      -3.6012      2.00000
      2      -0.9703      2.00000
      3       4.7983      2.00000
      4       4.8063      2.00000
      5       7.5034      0.00000
      6       9.2472      0.00000
      7       9.2552      0.00000
      8      13.6071      0.00000
      9      16.3957      0.00000
     10      16.4616      0.00000
     11      17.2510      0.00000
     12      17.2857      0.00000

 k-point     5 :       0.5000    0.5100    0.5000
  band No.  band energies     occupation 
      1      -3.6012      2.00000
      2      -0.9703      2.00000
      3       4.7983      2.00000
      4       4.8063      2.00000
      5       7.5034      0.00000
      6       9.2472      0.00000
      7       9.2552      0.00000
      8      13.6071      0.00000
      9      16.3957      0.00000
     10      16.4616      0.00000
     11      17.2506      0.00000
     12      17.2747      0.00000

 k-point     6 :       0.5000    0.5000    0.4900
  band No.  band energies     occupation 
      1      -3.6012      2.00000
      2      -0.9703      2.00000
      3       4.7983      2.00000
      4       4.8063      2.00000
      5       7.5034      0.00000
      6       9.2472      0.00000
      7       9.2552      0.00000
      8      13.6071      0.00000
      9      16.3957      0.00000
     10      16.4616      0.00000
     11      17.2505      0.00000
     12      17.2679      0.00000

 k-point     7 :       0.5000    0.5000    0.5100
  band No.  band energies     occupation 
      1      -3.6012      2.00000
      2      -0.9703      2.00000
      3       4.7983      2.00000
      4       4.8063      2.00000
      5       7.5034      0.00000
      6       9.2472      0.00000
      7       9.2552      0.00000
      8      13.6071      0.00000
      9      16.3957      0.00000
     10      16.4616      0.00000
     11      17.2505      0.00000
     12      17.2682      0.00000

 k-point     8 :       0.4900    0.4900    0.5000
  band No.  band energies     occupation 
      1      -3.6031      2.00000
      2      -0.9675      2.00000
      3       4.7965      2.00000
      4       4.8086      2.00000
      5       7.5037      0.00000
      6       9.2495      0.00000
      7       9.2534      0.00000
      8      13.6076      0.00000
      9      16.3921      0.00000
     10      16.4311      0.00000
     11      17.2457      0.00000
     12      17.3355      0.00000

 k-point     9 :       0.5100    0.5100    0.5000
  band No.  band energies     occupation 
      1      -3.6031      2.00000
      2      -0.9675      2.00000
      3       4.7965      2.00000
      4       4.8086      2.00000
      5       7.5037      0.00000
      6       9.2495      0.00000
      7       9.2534      0.00000
      8      13.6076      0.00000
      9      16.3921      0.00000
     10      16.4311      0.00000
     11      17.2430      0.00000
     12      17.3354      0.00000

 k-point    10 :       0.5100    0.4900    0.5000
  band No.  band energies     occupation 
      1      -3.5982      2.00000
      2      -0.9699      2.00000
      3       4.7748      2.00000
      4       4.8024      2.00000
      5       7.5244      0.00000
      6       9.2437      0.00000
      7       9.2637      0.00000
      8      13.6178      0.00000
      9      16.3413      0.00000
     10      16.4220      0.00000
     11      17.2647      0.00000
     12      17.2714      0.00000

 k-point    11 :       0.4900    0.5100    0.5000
  band No.  band energies     occupation 
      1      -3.5982      2.00000
      2      -0.9699      2.00000
      3       4.7748      2.00000
      4       4.8024      2.00000
      5       7.5244      0.00000
      6       9.2437      0.00000
      7       9.2637      0.00000
      8      13.6178      0.00000
      9      16.3413      0.00000
     10      16.4220      0.00000
     11      17.2646      0.00000
     12      17.2714      0.00000

 k-point    12 :       0.4900    0.5000    0.4900
  band No.  band energies     occupation 
      1      -3.6031      2.00000
      2      -0.9675      2.00000
      3       4.7965      2.00000
      4       4.8086      2.00000
      5       7.5037      0.00000
      6       9.2495      0.00000
      7       9.2534      0.00000
      8      13.6076      0.00000
      9      16.3922      0.00000
     10      16.4311      0.00000
     11      17.2432      0.00000
     12      17.3351      0.00000

 k-point    13 :       0.5100    0.5000    0.5100
  band No.  band energies     occupation 
      1      -3.6031      2.00000
      2      -0.9675      2.00000
      3       4.7965      2.00000
      4       4.8086      2.00000
      5       7.5037      0.00000
      6       9.2495      0.00000
      7       9.2534      0.00000
      8      13.6076      0.00000
      9      16.3922      0.00000
     10      16.4311      0.00000
     11      17.2432      0.00000
     12      17.3356      0.00000

 k-point    14 :       0.5100    0.5000    0.4900
  band No.  band energies     occupation 
      1      -3.5982      2.00000
      2      -0.9699      2.00000
      3       4.7748      2.00000
      4       4.8024      2.00000
      5       7.5244      0.00000
      6       9.2437      0.00000
      7       9.2637      0.00000
      8      13.6178      0.00000
      9      16.3413      0.00000
     10      16.4220      0.00000
     11      17.2647      0.00000
     12      17.2714      0.00000

 k-point    15 :       0.4900    0.5000    0.5100
  band No.  band energies     occupation 
      1      -3.5982      2.00000
      2      -0.9699      2.00000
      3       4.7748      2.00000
      4       4.8024      2.00000
      5       7.5244      0.00000
      6       9.2437      0.00000
      7       9.2637      0.00000
      8      13.6178      0.00000
      9      16.3413      0.00000
     10      16.4220      0.00000
     11      17.2647      0.00000
     12      17.2714      0.00000

 k-point    16 :       0.5000    0.4900    0.4900
  band No.  band energies     occupation 
      1      -3.6031      2.00000
      2      -0.9675      2.00000
      3       4.7965      2.00000
      4       4.8086      2.00000
      5       7.5037      0.00000
      6       9.2495      0.00000
      7       9.2534      0.00000
      8      13.6076      0.00000
      9      16.3921      0.00000
     10      16.4311      0.00000
     11      17.2430      0.00000
     12      17.3331      0.00000

 k-point    17 :       0.5000    0.5100    0.5100
  band No.  band energies     occupation 
      1      -3.6031      2.00000
      2      -0.9675      2.00000
      3       4.7965      2.00000
      4       4.8086      2.00000
      5       7.5037      0.00000
      6       9.2495      0.00000
      7       9.2534      0.00000
      8      13.6076      0.00000
      9      16.3921      0.00000
     10      16.4311      0.00000
     11      17.2430      0.00000
     12      17.3356      0.00000

 k-point    18 :       0.5000    0.5100    0.4900
  band No.  band energies     occupation 
      1      -3.5982      2.00000
      2      -0.9699      2.00000
      3       4.7748      2.00000
      4       4.8024      2.00000
      5       7.5244      0.00000
      6       9.2437      0.00000
      7       9.2637      0.00000
      8      13.6178      0.00000
      9      16.3413      0.00000
     10      16.4220      0.00000
     11      17.2647      0.00000
     12      17.2714      0.00000

 k-point    19 :       0.5000    0.4900    0.5100
  band No.  band energies     occupation 
      1      -3.5982      2.00000
      2      -0.9699      2.00000
      3       4.7748      2.00000
      4       4.8024      2.00000
      5       7.5244      0.00000
      6       9.2437      0.00000
      7       9.2637      0.00000
      8      13.6178      0.00000
      9      16.3413      0.00000
     10      16.4220      0.00000
     11      17.2647      0.00000
     12      17.2714      0.00000


--------------------------------------------------------------------------------------------------------


 soft charge-density along one line, spin component           1
         0         1         2         3         4         5         6         7         8         9
x     8.4155    0.0000    2.1297    0.0000    0.4489    0.0000    0.1091    0.0000    0.0045   -0.0000
x    -0.0038   -0.0000   -0.0012   -0.0000    0.0000   -0.0000    0.0000    0.0000    0.0000   -0.0000
x    -0.0000   -0.0000   -0.0000   -0.0000    0.0000    0.0000
y     8.4155    0.0000    2.1297    0.0000    0.4489    0.0000    0.1091    0.0000    0.0045   -0.0000
y    -0.0038   -0.0000   -0.0012   -0.0000    0.0000   -0.0000    0.0000    0.0000    0.0000   -0.0000
y    -0.0000   -0.0000   -0.0000   -0.0000    0.0000    0.0000
z     8.4155    0.0000    2.1297    0.0000    0.4489    0.0000    0.1091    0.0000    0.0045   -0.0000
z    -0.0038   -0.0000   -0.0012   -0.0000    0.0000   -0.0000    0.0000    0.0000    0.0000   -0.0000
z    -0.0000   -0.0000   -0.0000   -0.0000    0.0000    0.0000
 total charge-density along one line
x     8.0000    0.0000    1.8788    0.0000    0.4489    0.0000    0.1701    0.0000    0.0213   -0.0000
x    -0.0048   -0.0000   -0.0012   -0.0000   -0.0003   -0.0000    0.0001   -0.0000    0.0001   -0.0000
x    -0.0000   -0.0000    0.0000    0.0000   -0.0000    0.0000    0.0000    0.0000    0.0000    0.0000
x     0.0000    0.0000   -0.0000   -0.0000   -0.0000   -0.0000    0.0000    0.0000   -0.0000   -0.0000
x     0.0000   -0.0000   -0.0000    0.0000   -0.0000    0.0000   -0.0000   -0.0000    0.0000    0.0000
y     8.0000    0.0000    1.8788    0.0000    0.4489    0.0000    0.1701    0.0000    0.0213   -0.0000
y    -0.0048   -0.0000   -0.0012   -0.0000   -0.0003   -0.0000    0.0001   -0.0000    0.0001    0.0000
y    -0.0000   -0.0000    0.0000   -0.0000   -0.0000    0.0000    0.0000   -0.0000    0.0000    0.0000
y     0.0000    0.0000   -0.0000   -0.0000   -0.0000   -0.0000   -0.0000   -0.0000   -0.0000   -0.0000
y     0.0000    0.0000   -0.0000    0.0000   -0.0000    0.0000   -0.0000    0.0000    0.0000   -0.0000
z     8.0000    0.0000    1.8788    0.0000    0.4489    0.0000    0.1701   -0.0000    0.0213   -0.0000
z    -0.0048   -0.0000   -0.0012   -0.0000   -0.0003   -0.0000    0.0001    0.0000    0.0001   -0.0000
z    -0.0000   -0.0000    0.0000   -0.0000   -0.0000   -0.0000    0.0000   -0.0000    0.0000   -0.0000
z     0.0000   -0.0000   -0.0000   -0.0000   -0.0000   -0.0000   -0.0000   -0.0000   -0.0000   -0.0000
z     0.0000    0.0000   -0.0000   -0.0000   -0.0000    0.0000   -0.0000    0.0000    0.0000   -0.0000
 
 pseudopotential strength for first ion, spin component:           1
 18.386  25.652   0.000   0.000   0.000   0.000   0.000   0.000
 25.652  35.793   0.000   0.000   0.000   0.000   0.000   0.000
  0.000   0.000   4.178  -0.000  -0.000   7.785  -0.000  -0.000
  0.000   0.000  -0.000   4.178  -0.000  -0.000   7.785  -0.000
  0.000   0.000  -0.000  -0.000   4.178  -0.000  -0.000   7.785
  0.000   0.000   7.785  -0.000  -0.000  14.516  -0.000  -0.000
  0.000   0.000  -0.000   7.785  -0.000  -0.000  14.516  -0.000
  0.000   0.000  -0.000  -0.000   7.785  -0.000  -0.000  14.516
 total augmentation occupancy for first ion, spin component:           1
  6.078  -2.423   0.000   0.000  -0.000  -0.000   0.000  -0.000
 -2.423   0.987  -0.000   0.000  -0.000   0.000   0.000  -0.000
 -0.000  -0.000   3.125  -0.000   0.000  -0.665  -0.000  -0.000
  0.000  -0.000  -0.000   3.125   0.000   0.000  -0.665   0.000
 -0.000  -0.000   0.000   0.000   3.125  -0.000  -0.000  -0.665
  0.000   0.000  -0.665  -0.000  -0.000   0.156   0.000   0.000
  0.000   0.000   0.000  -0.665  -0.000   0.000   0.156  -0.000
 -0.000   0.000  -0.000  -0.000  -0.665   0.000  -0.000   0.156


------------------------ aborting loop because EDIFF is reached ----------------------------------------


 


 total charge     
 
# of ion       s       p       d       tot
------------------------------------------
    1        0.641   1.074   0.000   1.715
    2        0.641   1.074   0.000   1.715
--------------------------------------------------
tot          1.282   2.147   0.000   3.429
 
    CHARGE:  cpu time    0.0151: real time    0.0136
    FORLOC:  cpu time    0.0013: real time    0.0012
    FORNL :  cpu time    0.0191: real time    0.0172
    STRESS:  cpu time    0.0551: real time    0.0496
    FORCOR:  cpu time    0.0314: real time    0.0282
    FORHAR:  cpu time    0.0063: real time    0.0057
    MIXING:  cpu time    0.0016: real time    0.0015
    OFIELD:  cpu time    0.0000: real time    0.0000

  FORCE on cell =-STRESS in cart. coord.  units (eV):
  Direction    XX          YY          ZZ          XY          YZ          ZX
  --------------------------------------------------------------------------------------
  Alpha Z     3.33881     3.33881     3.33881
  Ewald     -75.99608   -75.99616   -75.99607     0.00001    -0.00000     0.00000
  Hartree     5.68324     5.68323     5.68324     0.00000     0.00000     0.00000
  E(xc)     -25.66476   -25.66476   -25.66476    -0.00000    -0.00000    -0.00000
  Local     -30.41660   -30.41658   -30.41659    -0.00000     0.00001     0.00001
  n-local    76.53956    77.96594    70.83400    -2.01722    -3.49394    -4.94117
  augment   -10.55678   -10.55678   -10.55679    -0.00000    -0.00001    -0.00001
  Kinetic    62.85480    65.24586    53.29055    -3.38148    -5.85690    -8.28289
  Fock        0.00000     0.00000     0.00000     0.00000     0.00000     0.00000
  -------------------------------------------------------------------------------------
  Total       1.96470     1.96470     1.96470     0.00000    -0.00000     0.00000
  in kB      78.05204    78.05210    78.05202     0.00000    -0.00000     0.00000
  external pressure =       78.05 kB  Pullay stress =        0.00 kB


 VOLUME and BASIS-vectors are now :
 -----------------------------------------------------------------------------
  energy-cutoff  :      600.00
  volume of cell :       40.33
      direct lattice vectors                 reciprocal lattice vectors
     3.333573000  0.000000000  1.924639000     0.299978432 -0.106058350  0.000000000
     1.111191000  3.142924000  1.924639000     0.000000000  0.318175050  0.000000000
     0.000000000  0.000000000  3.849278000    -0.149989216 -0.106058350  0.259788979

  length of vectors
     3.849278403  3.849279412  3.849278000     0.318175161  0.318175050  0.318175190


 FORCES acting on ions
    electron-ion (+dipol)            ewald-force                    non-local-force                 convergence-correction
 -----------------------------------------------------------------------------------------------
   0.601E-05 0.273E-04 0.358E-06   -.892E-05 -.418E-04 -.429E-15   -.540E-15 -.959E-15 -.157E-14   -.148E-08 -.295E-08 -.174E-08
   -.601E-05 -.273E-04 -.358E-06   0.892E-05 0.418E-04 0.408E-15   0.392E-15 0.909E-15 0.242E-14   0.148E-08 0.295E-08 0.174E-08
 -----------------------------------------------------------------------------------------------
   -.195E-13 0.505E-14 0.560E-14   -.341E-15 0.468E-16 -.212E-16   -.147E-15 -.504E-16 0.849E-15   -.168E-14 -.107E-14 -.204E-14
 
 
 POSITION                                       TOTAL-FORCE (eV/Angst)
 -----------------------------------------------------------------------------------
      3.88917      2.75006      6.73624        -0.000000      0.000000      0.000000
      0.55560      0.39287      0.96232         0.000000     -0.000000     -0.000000
 -----------------------------------------------------------------------------------
    total drift:                               -0.000000      0.000000      0.000000


--------------------------------------------------------------------------------------------------------



  FREE ENERGIE OF THE ION-ELECTRON SYSTEM (eV)
  ---------------------------------------------------
  free  energy   TOTEN  =        -8.34895959 eV

  energy  without entropy=       -8.34895959  energy(sigma->0) =       -8.34895959
 


--------------------------------------------------------------------------------------------------------


    POTLOK:  cpu time    0.0328: real time    0.0296


--------------------------------------------------------------------------------------------------------


 writing wavefunctions
     LOOP+:  cpu time    4.4609: real time    4.0166
    4ORBIT:  cpu time    0.0000: real time    0.0000
 


 total charge     
 
# of ion       s       p       d       tot
------------------------------------------
    1        0.641   1.074   0.000   1.715
    2        0.641   1.074   0.000   1.715
--------------------------------------------------
tot          1.282   2.147   0.000   3.429
 

 total amount of memory used by VASP MPI-rank0    42701. kBytes
=======================================================================

   base      :      30000. kBytes
   nonl-proj :       1687. kBytes
   grid      :       6018. kBytes
   one-center:          6. kBytes
   wavefun   :       4990. kBytes
 
  
  
 General timing and accounting informations for this job:
 ========================================================
  
                  Total CPU time used (sec):        4.723
                            User time (sec):        4.672
                          System time (sec):        0.051
                         Elapsed time (sec):        4.259
  
                   Maximum memory used (kb):       30936.
                   Average memory used (kb):           0.
  
                          Minor page faults:        18087
                          Major page faults:           12
                 Voluntary context switches:           36
