 vasp.5.4.4.18Apr17-6-g9f103f2a35 (build Sep 03 2019 17:22:03) complex          
  
 executed on             LinuxIFC date 2024.12.14  20:46:34
 serial version


--------------------------------------------------------------------------------------------------------


 INCAR:
 POTCAR:    PAW_PBE Si 05Jan2001                  
 POTCAR:    PAW_PBE Si 05Jan2001                  
   SHA256 =  79d9987ad8750f624c4d6acb2a16d13abf6a777132adc04dc6c8399be72b42bb Si
   COPYR  = (c) Copyright 05Jan2001 Georg Kresse                                
   COPYR  = This file is part of the software VASP. Any use, copying, and all ot
   COPYR  = If you do not have a valid VASP license, you may not use, copy or di
   VRHFIN =Si: s2p2                                                             
   LEXCH  = PE                                                                  
   EATOM  =   103.0669 eV,    7.5752 Ry                                         
                                                                                
   TITEL  = PAW_PBE Si 05Jan2001                                                
   LULTRA =        F    use ultrasoft PP ?                                      
   IUNSCR =        1    unscreen: 0-lin 1-nonlin 2-no                           
   RPACOR =    1.500    partial core radius                                     
   POMASS =   28.085; ZVAL   =    4.000    mass and valenz                      
   RCORE  =    1.900    outmost cutoff radius                                   
   RWIGS  =    2.480; RWIGS  =    1.312    wigner-seitz radius (au A)           
   ENMAX  =  245.345; ENMIN  =  184.009 eV                                      
   ICORE  =        2    local potential                                         
   LCOR   =        T    correct aug charges                                     
   LPAW   =        T    paw PP                                                  
   EAUG   =  322.069                                                            
   DEXC   =    0.000                                                            
   RMAX   =    1.950    core radius for proj-oper                               
   RAUG   =    1.300    factor for augmentation sphere                          
   RDEP   =    1.993    radius for radial grids                                 
   RDEPT  =    1.837    core radius for aug-charge                              
                                                                                
   Atomic configuration                                                         
    6 entries                                                                   
     n  l   j            E        occ.                                          
     1  0  0.50     -1785.8828   2.0000                                         
     2  0  0.50      -139.4969   2.0000                                         
     2  1  1.50       -95.5546   6.0000                                         
     3  0  0.50       -10.8127   2.0000                                         
     3  1  0.50        -4.0811   2.0000                                         
     3  2  1.50        -4.0817   0.0000                                         
   Description                                                                  
     l       E           TYP  RCUT    TYP  RCUT                                 
     0    -10.8127223     23  1.900                                             
     0     -7.6451159     23  1.900                                             
     1     -4.0811372     23  1.900                                             
     1      2.4879257     23  1.900                                             
     2     -4.0817478      7  1.900                                             
  local pseudopotential read in
  partial core-charges read in
  partial kinetic energy density read in
  atomic valenz-charges read in
  non local Contribution for L=           0  read in
    real space projection operators read in
  non local Contribution for L=           0  read in
    real space projection operators read in
  non local Contribution for L=           1  read in
    real space projection operators read in
  non local Contribution for L=           1  read in
    real space projection operators read in
    PAW grid and wavefunctions read in
 
   number of l-projection  operators is LMAX  =           4
   number of lm-projection operators is LMMAX =           8
 
  PAW_PBE Si 05Jan2001                  :
 energy of atom  1       EATOM= -103.0669
 kinetic energy error for atom=    0.0003 (will be added to EATOM!!)
 
 
 POSCAR: i2a=[Si] ; Si                           
  positions in direct lattice
  No initial velocities read in
 exchange correlation table for  LEXCH =        8
   RHO(1)=    0.500       N(1)  =     2000
   RHO(2)=  100.500       N(2)  =     4000
 


--------------------------------------------------------------------------------------------------------


 ion  position               nearest neighbor table
   1  0.875  0.875  0.875-   2 2.36   2 2.36   2 2.36   2 2.36
   2  0.125  0.125  0.125-   1 2.36   1 2.36   1 2.36   1 2.36
 
  LATTYP: Found a face centered cubic cell.
 ALAT       =     5.4437011529
  
  Lattice vectors:
  
 A1 = (   3.3335730000,   0.0000000000,   1.9246390000)
 A2 = (   1.1111910000,   3.1429240000,   1.9246390000)
 A3 = (   0.0000000000,   0.0000000000,   3.8492780000)


Analysis of symmetry for initial positions (statically):
=====================================================================
 Subroutine PRICEL returns:
 Original cell was already a primitive cell.
 

 Routine SETGRP: Setting up the symmetry group for a 
 face centered cubic supercell.


 Subroutine GETGRP returns: Found 48 space group operations
 (whereof 12 operations were pure point group operations)
 out of a pool of 48 trial point group operations.


The static configuration has the point symmetry D_3d.
 The point group associated with its full space group is O_h .


Analysis of symmetry for dynamics (positions and initial velocities):
=====================================================================
 Subroutine PRICEL returns:
 Original cell was already a primitive cell.
 

 Routine SETGRP: Setting up the symmetry group for a 
 face centered cubic supercell.


 Subroutine GETGRP returns: Found 48 space group operations
 (whereof 12 operations were pure point group operations)
 out of a pool of 48 trial point group operations.


The dynamic configuration has the point symmetry D_3d.
 The point group associated with its full space group is O_h .


 Subroutine INISYM returns: Found 48 space group operations
 (whereof 12 operations are pure point group operations),
 and found     1 'primitive' translations

 
 
 KPOINTS: Explicit k-point list                   
  k-points in reciprocal lattice
Space group operators:
 irot       det(A)        alpha          n_x          n_y          n_z        tau_x        tau_y        tau_z
    1     1.000000     0.000000     1.000000     0.000000     0.000000     0.000000     0.000000     0.000000
    2    -1.000000     0.000000     1.000000     0.000000     0.000000     0.000000     0.000000     0.000000
    3     1.000000   120.000000    -0.471404    -0.333333    -0.816497     0.000000     0.000000     0.000000
    4    -1.000000   120.000000    -0.471404    -0.333333    -0.816497     0.000000     0.000000     0.000000
    5     1.000000   120.000000     0.471405     0.333333     0.816496     0.000000     0.000000     0.000000
    6    -1.000000   120.000000     0.471405     0.333333     0.816496     0.000000     0.000000     0.000000
    7     1.000000   180.000000     0.288675     0.816496    -0.500000     0.000000     0.000000     0.000000
    8    -1.000000   180.000000     0.288675     0.816496    -0.500000     0.000000     0.000000     0.000000
    9     1.000000   180.000000     0.577350    -0.816496     0.000000     0.000000     0.000000     0.000000
   10    -1.000000   180.000000     0.577350    -0.816496     0.000000     0.000000     0.000000     0.000000
   11     1.000000   180.000000     0.866025    -0.000000    -0.500000     0.000000     0.000000     0.000000
   12    -1.000000   180.000000     0.866025    -0.000000    -0.500000     0.000000     0.000000     0.000000
   13     1.000000    90.000000    -0.816497    -0.577350    -0.000000     0.500000     0.000000     0.000000
   14    -1.000000    90.000000    -0.816497    -0.577350    -0.000000     0.500000     0.000000     0.000000
   15     1.000000   180.000000     0.866025    -0.000000     0.500000     0.500000     0.000000     0.000000
   16    -1.000000   180.000000     0.866025    -0.000000     0.500000     0.500000     0.000000     0.000000
   17     1.000000    90.000000     0.408248    -0.577350     0.707107     0.500000     0.000000     0.000000
   18    -1.000000    90.000000     0.408248    -0.577350     0.707107     0.500000     0.000000     0.000000
   19     1.000000   180.000000     0.816497     0.577350     0.000000     0.000000     0.000000     0.500000
   20    -1.000000   180.000000     0.816497     0.577350     0.000000     0.000000     0.000000     0.500000
   21     1.000000   120.000000     0.942809    -0.333333     0.000000     0.000000     0.000000     0.500000
   22    -1.000000   120.000000     0.942809    -0.333333     0.000000     0.000000     0.000000     0.500000
   23     1.000000   120.000000     0.000000    -1.000000     0.000000     0.000000     0.000000     0.500000
   24    -1.000000   120.000000     0.000000    -1.000000     0.000000     0.000000     0.000000     0.500000
   25     1.000000    90.000000     0.816497     0.577350    -0.000000     0.000000     0.500000     0.000000
   26    -1.000000    90.000000     0.816497     0.577350    -0.000000     0.000000     0.500000     0.000000
   27     1.000000    90.000000     0.408249    -0.577350    -0.707107     0.000000     0.500000     0.000000
   28    -1.000000    90.000000     0.408249    -0.577350    -0.707107     0.000000     0.500000     0.000000
   29     1.000000   179.999999     0.288675     0.816496     0.500000     0.000000     0.500000     0.000000
   30    -1.000000   179.999999     0.288675     0.816496     0.500000     0.000000     0.500000     0.000000
   31     1.000000   120.000000     0.000000     1.000000     0.000000     0.500000     0.000000     0.000000
   32    -1.000000   120.000000     0.000000     1.000000     0.000000     0.500000     0.000000     0.000000
   33     1.000000   120.000000     0.471404     0.333333    -0.816497     0.500000     0.000000     0.000000
   34    -1.000000   120.000000     0.471404     0.333333    -0.816497     0.500000     0.000000     0.000000
   35     1.000000   180.000000    -0.408248     0.577350     0.707107     0.500000     0.000000     0.000000
   36    -1.000000   180.000000    -0.408248     0.577350     0.707107     0.500000     0.000000     0.000000
   37     1.000000    90.000000    -0.408249     0.577350    -0.707107     0.000000     0.000000     0.500000
   38    -1.000000    90.000000    -0.408249     0.577350    -0.707107     0.000000     0.000000     0.500000
   39     1.000000   180.000000    -0.000000     0.000000     1.000000     0.000000     0.000000     0.500000
   40    -1.000000   180.000000    -0.000000     0.000000     1.000000     0.000000     0.000000     0.500000
   41     1.000000    90.000000    -0.408248     0.577350     0.707107     0.000000     0.000000     0.500000
   42    -1.000000    90.000000    -0.408248     0.577350     0.707107     0.000000     0.000000     0.500000
   43     1.000000   120.000000    -0.942809     0.333333     0.000000     0.000000     0.500000     0.000000
   44    -1.000000   120.000000    -0.942809     0.333333     0.000000     0.000000     0.500000     0.000000
   45     1.000000   180.000000    -0.408248     0.577350    -0.707107     0.000000     0.500000     0.000000
   46    -1.000000   180.000000    -0.408248     0.577350    -0.707107     0.000000     0.500000     0.000000
   47     1.000000   120.000000    -0.471405    -0.333333     0.816496     0.000000     0.500000     0.000000
   48    -1.000000   120.000000    -0.471405    -0.333333     0.816496     0.000000     0.500000     0.000000


--------------------------------------------------------------------------------------------------------




 Dimension of arrays:
   k-points           NKPTS =      1   k-points in BZ     NKDIM =      1   number of bands    NBANDS=     12
   number of dos      NEDOS =    301   number of ions     NIONS =      2
   non local maximal  LDIM  =      4   non local SUM 2l+1 LMDIM =      8
   total plane-waves  NPLWV =  13824
   max r-space proj   IRMAX =      1   max aug-charges    IRDMAX=  11659
   dimension x,y,z NGX =    24 NGY =   24 NGZ =   24
   dimension x,y,z NGXF=    48 NGYF=   48 NGZF=   48
   support grid    NGXF=    48 NGYF=   48 NGZF=   48
   ions per type =               2
   NGX,Y,Z   is equivalent  to a cutoff of  10.37, 10.37, 10.37 a.u.
   NGXF,Y,Z  is equivalent  to a cutoff of  20.73, 20.73, 20.73 a.u.

 SYSTEM =  auto Fully inherited from the final st  
 POSCAR =  i2a=[Si] ; Si                           

 Startparameter for this run:
   NWRITE =      2    write-flag & timer
   PREC   = normal    normal or accurate (medium, high low for compatibility)
   ISTART =      1    job   : 0-new  1-cont  2-samecut
   ICHARG =      0    charge: 1-file 2-atom 10-const
   ISPIN  =      1    spin polarized calculation?
   LNONCOLLINEAR =      F non collinear calculations
   LSORBIT =      F    spin-orbit coupling
   INIWAV =      1    electr: 0-lowe 1-rand  2-diag
   LASPH  =      F    aspherical Exc in radial PAW
   METAGGA=      F    non-selfconsistent MetaGGA calc.

 Electronic Relaxation 1
   ENCUT  =  600.0 eV  44.10 Ry    6.64 a.u.   7.69  7.69  7.69*2*pi/ulx,y,z
   ENINI  =  600.0     initial cutoff
   ENAUG  =  700.0 eV  augmentation charge cutoff
   NELM   =     60;   NELMIN=  2; NELMDL=  0     # of ELM steps 
   EDIFF  = 0.1E-04   stopping-criterion for ELM
   LREAL  =      F    real-space projection
   NLSPLINE    = F    spline interpolate recip. space projectors
   LCOMPAT=      F    compatible to vasp.4.4
   GGA_COMPAT  = T    GGA compatible to vasp.4.4-vasp.4.6
   LMAXPAW     = -100 max onsite density
   LMAXMIX     =    2 max onsite mixed and CHGCAR
   VOSKOWN=      0    Vosko Wilk Nusair interpolation
   ROPT   =    0.00000
 Ionic relaxation
   EDIFFG = 0.1E-03   stopping-criterion for IOM
   NSW    =      0    number of steps for IOM
   NBLOCK =      1;   KBLOCK =      1    inner block; outer block 
   IBRION =     -1    ionic relax: 0-MD 1-quasi-New 2-CG
   NFREE  =      0    steps in history (QN), initial steepest desc. (CG)
   ISIF   =      2    stress and relaxation
   IWAVPR =      0    prediction:  0-non 1-charg 2-wave 3-comb
   ISYM   =      2    0-nonsym 1-usesym 2-fastsym
   LCORR  =      T    Harris-Foulkes like correction to forces

   POTIM  = 0.5000    time-step for ionic-motion
   TEIN   =    0.0    initial temperature
   TEBEG  =    0.0;   TEEND  =   0.0 temperature during run
   SMASS  =  -3.00    Nose mass-parameter (am)
   estimated Nose-frequenzy (Omega)   =  0.10E-29 period in steps =****** mass=  -0.339E-27a.u.
   SCALEE = 1.0000    scale energy and forces
   NPACO  =    256;   APACO  = 16.0  distance and # of slots for P.C.
   PSTRESS=    0.0 pullay stress

  Mass of Ions in am
   POMASS =  28.09
  Ionic Valenz
   ZVAL   =   4.00
  Atomic Wigner-Seitz radii
   RWIGS  =  -1.00
  virtual crystal weights 
   VCA    =   1.00
   NELECT =       8.0000    total number of electrons
   NUPDOWN=      -1.0000    fix difference up-down

 DOS related values:
   EMIN   =  10.00;   EMAX   =-10.00  energy-range for DOS
   EFERMI =   0.00
   ISMEAR =     0;   SIGMA  =   0.20  broadening in eV -4-tet -1-fermi 0-gaus

 Electronic relaxation 2 (details)
   IALGO  =     38    algorithm
   LDIAG  =      T    sub-space diagonalisation (order eigenvalues)
   LSUBROT=      F    optimize rotation matrix (better conditioning)
   TURBO    =      0    0=normal 1=particle mesh
   IRESTART =      0    0=no restart 2=restart with 2 vectors
   NREBOOT  =      0    no. of reboots
   NMIN     =      0    reboot dimension
   EREF     =   0.00    reference energy to select bands
   IMIX   =      4    mixing-type and parameters
     AMIX     =   0.40;   BMIX     =  1.00
     AMIX_MAG =   1.60;   BMIX_MAG =  1.00
     AMIN     =   0.10
     WC   =   100.;   INIMIX=   1;  MIXPRE=   1;  MAXMIX= -45

 Intra band minimization:
   WEIMIN = 0.0000     energy-eigenvalue tresh-hold
   EBREAK =  0.21E-06  absolut break condition
   DEPER  =   0.30     relativ break condition  

   TIME   =   0.40     timestep for ELM

  volume/ion in A,a.u.               =      20.16       136.08
  Fermi-wavevector in a.u.,A,eV,Ry     =   0.954766  1.804247 12.402783  0.911579
  Thomas-Fermi vector in A             =   2.083543
 
 Write flags
   LWAVE        =      T    write WAVECAR
   LDOWNSAMPLE  =      F    k-point downsampling of WAVECAR
   LCHARG       =      T    write CHGCAR
   LVTOT        =      F    write LOCPOT, total local potential
   LVHAR        =      F    write LOCPOT, Hartree potential only
   LELF         =      F    write electronic localiz. function (ELF)
   LORBIT       =     11    0 simple, 1 ext, 2 COOP (PROOUT), +10 PAW based schemes


 Dipole corrections
   LMONO  =      F    monopole corrections only (constant potential shift)
   LDIPOL =      F    correct potential (dipole corrections)
   IDIPOL =      0    1-x, 2-y, 3-z, 4-all directions 
   EPSILON=  1.0000000 bulk dielectric constant

 Exchange correlation treatment:
   GGA     =    --    GGA type
   LEXCH   =     8    internal setting for exchange type
   VOSKOWN=      0    Vosko Wilk Nusair interpolation
   LHFCALC =     F    Hartree Fock is set to
   LHFONE  =     F    Hartree Fock one center treatment
   AEXX    =    0.0000 exact exchange contribution

 Linear response parameters
   LEPSILON=     F    determine dielectric tensor
   LRPA    =     F    only Hartree local field effects (RPA)
   LNABLA  =     F    use nabla operator in PAW spheres
   LVEL    =     F    velocity operator in full k-point grid
   LINTERFAST=   F  fast interpolation
   KINTER  =     0    interpolate to denser k-point grid
   CSHIFT  =0.1000    complex shift for real part using Kramers Kronig
   OMEGAMAX=  -1.0    maximum frequency
   DEG_THRESHOLD= 0.2000000E-02 threshold for treating states as degnerate
   RTIME   =   -0.100 relaxation time in fs
  (WPLASMAI=    0.000 imaginary part of plasma frequency in eV, 0.658/RTIME)
   DFIELD  = 0.0000000 0.0000000 0.0000000 field for delta impulse in time
 
 Orbital magnetization related:
   ORBITALMAG=     F  switch on orbital magnetization
   LCHIMAG   =     F  perturbation theory with respect to B field
   DQ        =  0.001000  dq finite difference perturbation B field
   LLRAUG    =     F  two centre corrections for induced B field



--------------------------------------------------------------------------------------------------------


 Static calculation
 charge density and potential will be updated during run
 non-spin polarized calculation
 Variant of blocked Davidson
 Davidson routine will perform the subspace rotation
 perform sub-space diagonalisation
    after iterative eigenvector-optimisation
 modified Broyden-mixing scheme, WC =      100.0
 initial mixing is a Kerker type mixing with AMIX =  0.4000 and BMIX =      1.0000
 Hartree-type preconditioning will be used
 using additional bands            8
 reciprocal scheme for non local part
 use partial core corrections
 calculate Harris-corrections to forces 
   (improved forces if not selfconsistent)
 use gradient corrections 
 use of overlap-Matrix (Vanderbilt PP)
 Gauss-broadening in eV      SIGMA  =   0.20


--------------------------------------------------------------------------------------------------------


  energy-cutoff  :      600.00
  volume of cell :       40.33
      direct lattice vectors                 reciprocal lattice vectors
     3.333573000  0.000000000  1.924639000     0.299978432 -0.106058350  0.000000000
     1.111191000  3.142924000  1.924639000     0.000000000  0.318175050  0.000000000
     0.000000000  0.000000000  3.849278000    -0.149989216 -0.106058350  0.259788979

  length of vectors
     3.849278403  3.849279412  3.849278000     0.318175161  0.318175050  0.318175190


 
 old parameters found on file WAVECAR:
  energy-cutoff  :      600.00
  volume of cell :       40.91
      direct lattice vectors                 reciprocal lattice vectors
     0.000000000  2.734826398  2.734826398    -0.182826961  0.182826961  0.182826961
     2.734826398  0.000000000  2.734826398     0.182826961 -0.182826961  0.182826961
     2.734826398  2.734826398  0.000000000     0.182826961  0.182826961 -0.182826961

  length of vectors

 
 k-points in units of 2pi/SCALE and weight: Explicit k-point list                   
   0.00000000  0.00000000  0.00000000       1.000
 
 k-points in reciprocal lattice and weights: Explicit k-point list                   
   0.00000000  0.00000000  0.00000000       1.000
 
 position of ions in fractional coordinates (direct lattice) 
   0.87500000  0.87500000  0.87500000
   0.12500000  0.12500000  0.12500000
 
 position of ions in cartesian coordinates  (Angst):
   3.88916850  2.75005850  6.73623650
   0.55559550  0.39286550  0.96231950
 


--------------------------------------------------------------------------------------------------------


 k-point  1 :   0.0000 0.0000 0.0000  plane waves:    1363

 maximum number of plane-waves:      1363
 maximum index in each direction: 
   IXMAX=    7   IYMAX=    7   IZMAX=    7
   IXMIN=   -7   IYMIN=   -7   IZMIN=   -7


 total amount of memory used by VASP MPI-rank0    36418. kBytes
=======================================================================

   base      :      30000. kBytes
   nonl-proj :        130. kBytes
   grid      :       6018. kBytes
   one-center:          6. kBytes
   wavefun   :        264. kBytes
 
     INWAV:  cpu time    0.0004: real time    0.0004
 Broyden mixing: mesh for mixing (old mesh)
   NGX = 15   NGY = 15   NGZ = 15
  (NGX  = 48   NGY  = 48   NGZ  = 48)
  gives a total of   3375 points

 charge density for first step will be calculated from the start-wavefunctions


--------------------------------------------------------------------------------------------------------


 Maximum index for augmentation-charges        11057 (set IRDMAX)


--------------------------------------------------------------------------------------------------------


 initial charge from wavefunction
 First call to EWALD:  gamma=   0.517
 Maximum number of real-space cells 3x 3x 3
 Maximum number of reciprocal cells 3x 3x 3

    FEWALD:  cpu time    0.0009: real time    0.0009


--------------------------------------- Iteration      1(   1)  ---------------------------------------


    POTLOK:  cpu time    0.0320: real time    0.0322
    SETDIJ:  cpu time    0.0021: real time    0.0021
     EDDAV:  cpu time    0.0194: real time    0.0202
       DOS:  cpu time    0.0001: real time    0.0001
    CHARGE:  cpu time    0.0038: real time    0.0038
    MIXING:  cpu time    0.0011: real time    0.0011
    --------------------------------------------
      LOOP:  cpu time    0.0585: real time    0.0595

 eigenvalue-minimisations  :    32
 total energy-change (2. order) : 0.2008361E+01  (-0.4492442E+02)
 number of electron       7.9999999 magnetization 
 augmentation part       -0.3584217 magnetization 

 Broyden mixing:
  rms(total) = 0.42176E+01    rms(broyden)= 0.42176E+01
  rms(prec ) = 0.56300E+01
  weight for this iteration     100.00

 Free energy of the ion-electron system (eV)
  ---------------------------------------------------
  alpha Z        PSCENC =         3.33880741
  Ewald energy   TEWEN  =      -227.98820643
  -Hartree energ DENC   =        -1.46845824
  -exchange      EXHF   =         0.00000000
  -V(xc)+E(xc)   XCENC  =       -19.65272266
  PAW double counting   =      9619.02864768    -9583.22933742
  entropy T*S    EENTRO =        -0.00000000
  eigenvalues    EBANDS =         5.84651165
  atomic energy  EATOM  =       206.13311910
  Solvation  Ediel_sol  =         0.00000000
  ---------------------------------------------------
  free energy    TOTEN  =         2.00836108 eV

  energy without entropy =        2.00836108  energy(sigma->0) =        2.00836108


--------------------------------------------------------------------------------------------------------




--------------------------------------- Iteration      1(   2)  ---------------------------------------


    POTLOK:  cpu time    0.0308: real time    0.0309
    SETDIJ:  cpu time    0.0019: real time    0.0019
     EDDAV:  cpu time    0.0187: real time    0.0187
       DOS:  cpu time    0.0001: real time    0.0001
    CHARGE:  cpu time    0.0034: real time    0.0034
    MIXING:  cpu time    0.0012: real time    0.0012
    --------------------------------------------
      LOOP:  cpu time    0.0560: real time    0.0561

 eigenvalue-minimisations  :    32
 total energy-change (2. order) : 0.3376238E+00  (-0.4159470E+01)
 number of electron       7.9999999 magnetization 
 augmentation part       -0.3797819 magnetization 

 Broyden mixing:
  rms(total) = 0.29028E+01    rms(broyden)= 0.29028E+01
  rms(prec ) = 0.40008E+01
  weight for this iteration     100.00

 eigenvalues of (default mixing * dielectric matrix)
  average eigenvalue GAMMA=   3.1203
  3.1203

 Free energy of the ion-electron system (eV)
  ---------------------------------------------------
  alpha Z        PSCENC =         3.33880741
  Ewald energy   TEWEN  =      -227.98820643
  -Hartree energ DENC   =        -5.71080115
  -exchange      EXHF   =         0.00000000
  -V(xc)+E(xc)   XCENC  =       -19.05283316
  PAW double counting   =      5283.07433986    -5247.67111484
  entropy T*S    EENTRO =        -0.00000000
  eigenvalues    EBANDS =        10.22267411
  atomic energy  EATOM  =       206.13311910
  Solvation  Ediel_sol  =         0.00000000
  ---------------------------------------------------
  free energy    TOTEN  =         2.34598490 eV

  energy without entropy =        2.34598490  energy(sigma->0) =        2.34598490


--------------------------------------------------------------------------------------------------------




--------------------------------------- Iteration      1(   3)  ---------------------------------------


    POTLOK:  cpu time    0.0303: real time    0.0303
    SETDIJ:  cpu time    0.0019: real time    0.0019
     EDDAV:  cpu time    0.0153: real time    0.0153
       DOS:  cpu time    0.0001: real time    0.0001
    CHARGE:  cpu time    0.0038: real time    0.0038
    MIXING:  cpu time    0.0012: real time    0.0012
    --------------------------------------------
      LOOP:  cpu time    0.0525: real time    0.0526

 eigenvalue-minimisations  :    24
 total energy-change (2. order) : 0.3384816E+01  (-0.9407233E+00)
 number of electron       7.9999999 magnetization 
 augmentation part       -0.3079830 magnetization 

 Broyden mixing:
  rms(total) = 0.12943E+01    rms(broyden)= 0.12943E+01
  rms(prec ) = 0.16308E+01
  weight for this iteration     100.00

 eigenvalues of (default mixing * dielectric matrix)
  average eigenvalue GAMMA=   1.6524
  0.8038  2.5009

 Free energy of the ion-electron system (eV)
  ---------------------------------------------------
  alpha Z        PSCENC =         3.33880741
  Ewald energy   TEWEN  =      -227.98820643
  -Hartree energ DENC   =       -31.66669254
  -exchange      EXHF   =         0.00000000
  -V(xc)+E(xc)   XCENC  =       -15.97186106
  PAW double counting   =        70.62992234      -36.32299034
  entropy T*S    EENTRO =        -0.00000000
  eigenvalues    EBANDS =        37.57870289
  atomic energy  EATOM  =       206.13311910
  Solvation  Ediel_sol  =         0.00000000
  ---------------------------------------------------
  free energy    TOTEN  =         5.73080138 eV

  energy without entropy =        5.73080138  energy(sigma->0) =        5.73080138


--------------------------------------------------------------------------------------------------------




--------------------------------------- Iteration      1(   4)  ---------------------------------------


    POTLOK:  cpu time    0.0304: real time    0.0306
    SETDIJ:  cpu time    0.0019: real time    0.0019
     EDDAV:  cpu time    0.0153: real time    0.0153
       DOS:  cpu time    0.0001: real time    0.0001
    CHARGE:  cpu time    0.0033: real time    0.0033
    MIXING:  cpu time    0.0013: real time    0.0013
    --------------------------------------------
      LOOP:  cpu time    0.0523: real time    0.0525

 eigenvalue-minimisations  :    24
 total energy-change (2. order) : 0.3830748E+00  (-0.7499006E-01)
 number of electron       7.9999999 magnetization 
 augmentation part       -0.3204778 magnetization 

 Broyden mixing:
  rms(total) = 0.21934E+00    rms(broyden)= 0.21934E+00
  rms(prec ) = 0.26692E+00
  weight for this iteration     100.00

 eigenvalues of (default mixing * dielectric matrix)
  average eigenvalue GAMMA=   1.9980
  0.9738  2.5101  2.5101

 Free energy of the ion-electron system (eV)
  ---------------------------------------------------
  alpha Z        PSCENC =         3.33880741
  Ewald energy   TEWEN  =      -227.98820643
  -Hartree energ DENC   =       -23.18299832
  -exchange      EXHF   =         0.00000000
  -V(xc)+E(xc)   XCENC  =       -17.00294125
  PAW double counting   =       624.82322120     -590.12584606
  entropy T*S    EENTRO =        -0.00000000
  eigenvalues    EBANDS =        30.11872057
  atomic energy  EATOM  =       206.13311910
  Solvation  Ediel_sol  =         0.00000000
  ---------------------------------------------------
  free energy    TOTEN  =         6.11387622 eV

  energy without entropy =        6.11387622  energy(sigma->0) =        6.11387622


--------------------------------------------------------------------------------------------------------




--------------------------------------- Iteration      1(   5)  ---------------------------------------


    POTLOK:  cpu time    0.0303: real time    0.0303
    SETDIJ:  cpu time    0.0019: real time    0.0019
     EDDAV:  cpu time    0.0153: real time    0.0153
       DOS:  cpu time    0.0001: real time    0.0001
    CHARGE:  cpu time    0.0034: real time    0.0034
    MIXING:  cpu time    0.0013: real time    0.0013
    --------------------------------------------
      LOOP:  cpu time    0.0523: real time    0.0523

 eigenvalue-minimisations  :    24
 total energy-change (2. order) :-0.3258947E-01  (-0.3134689E-02)
 number of electron       7.9999999 magnetization 
 augmentation part       -0.3255543 magnetization 

 Broyden mixing:
  rms(total) = 0.11428E+00    rms(broyden)= 0.11428E+00
  rms(prec ) = 0.14003E+00
  weight for this iteration     100.00

 eigenvalues of (default mixing * dielectric matrix)
  average eigenvalue GAMMA=   1.7357
  2.5649  2.5649  0.9066  0.9066

 Free energy of the ion-electron system (eV)
  ---------------------------------------------------
  alpha Z        PSCENC =         3.33880741
  Ewald energy   TEWEN  =      -227.98820643
  -Hartree energ DENC   =       -22.39776592
  -exchange      EXHF   =         0.00000000
  -V(xc)+E(xc)   XCENC  =       -17.08334851
  PAW double counting   =      1026.36070859     -991.43114952
  entropy T*S    EENTRO =        -0.00000000
  eigenvalues    EBANDS =        29.14912202
  atomic energy  EATOM  =       206.13311910
  Solvation  Ediel_sol  =         0.00000000
  ---------------------------------------------------
  free energy    TOTEN  =         6.08128675 eV

  energy without entropy =        6.08128675  energy(sigma->0) =        6.08128675


--------------------------------------------------------------------------------------------------------




--------------------------------------- Iteration      1(   6)  ---------------------------------------


    POTLOK:  cpu time    0.0304: real time    0.0304
    SETDIJ:  cpu time    0.0019: real time    0.0019
     EDDAV:  cpu time    0.0153: real time    0.0153
       DOS:  cpu time    0.0001: real time    0.0001
    CHARGE:  cpu time    0.0034: real time    0.0034
    MIXING:  cpu time    0.0014: real time    0.0014
    --------------------------------------------
      LOOP:  cpu time    0.0524: real time    0.0525

 eigenvalue-minimisations  :    24
 total energy-change (2. order) : 0.2212665E-02  (-0.4292753E-03)
 number of electron       7.9999999 magnetization 
 augmentation part       -0.3244019 magnetization 

 Broyden mixing:
  rms(total) = 0.21915E-01    rms(broyden)= 0.21915E-01
  rms(prec ) = 0.24822E-01
  weight for this iteration     100.00

 eigenvalues of (default mixing * dielectric matrix)
  average eigenvalue GAMMA=   1.9777
  3.1490  2.3514  2.3514  1.0184  1.0184

 Free energy of the ion-electron system (eV)
  ---------------------------------------------------
  alpha Z        PSCENC =         3.33880741
  Ewald energy   TEWEN  =      -227.98820643
  -Hartree energ DENC   =       -23.03742568
  -exchange      EXHF   =         0.00000000
  -V(xc)+E(xc)   XCENC  =       -17.01085100
  PAW double counting   =       915.20065432     -880.30216181
  entropy T*S    EENTRO =        -0.00000000
  eigenvalues    EBANDS =        29.74956350
  atomic energy  EATOM  =       206.13311910
  Solvation  Ediel_sol  =         0.00000000
  ---------------------------------------------------
  free energy    TOTEN  =         6.08349941 eV

  energy without entropy =        6.08349941  energy(sigma->0) =        6.08349941


--------------------------------------------------------------------------------------------------------




--------------------------------------- Iteration      1(   7)  ---------------------------------------


    POTLOK:  cpu time    0.0317: real time    0.0317
    SETDIJ:  cpu time    0.0020: real time    0.0020
     EDDAV:  cpu time    0.0154: real time    0.0154
       DOS:  cpu time    0.0001: real time    0.0001
    CHARGE:  cpu time    0.0034: real time    0.0034
    MIXING:  cpu time    0.0015: real time    0.0015
    --------------------------------------------
      LOOP:  cpu time    0.0541: real time    0.0541

 eigenvalue-minimisations  :    24
 total energy-change (2. order) :-0.4683998E-03  (-0.8092911E-04)
 number of electron       7.9999999 magnetization 
 augmentation part       -0.3240902 magnetization 

 Broyden mixing:
  rms(total) = 0.10647E-01    rms(broyden)= 0.10647E-01
  rms(prec ) = 0.12467E-01
  weight for this iteration     100.00

 eigenvalues of (default mixing * dielectric matrix)
  average eigenvalue GAMMA=   1.7882
  3.0347  2.4747  2.0868  0.9823  1.0752  1.0752

 Free energy of the ion-electron system (eV)
  ---------------------------------------------------
  alpha Z        PSCENC =         3.33880741
  Ewald energy   TEWEN  =      -227.98820643
  -Hartree energ DENC   =       -23.14650283
  -exchange      EXHF   =         0.00000000
  -V(xc)+E(xc)   XCENC  =       -17.00295578
  PAW double counting   =       864.92510210     -830.03831587
  entropy T*S    EENTRO =        -0.00000000
  eigenvalues    EBANDS =        29.86198331
  atomic energy  EATOM  =       206.13311910
  Solvation  Ediel_sol  =         0.00000000
  ---------------------------------------------------
  free energy    TOTEN  =         6.08303101 eV

  energy without entropy =        6.08303101  energy(sigma->0) =        6.08303101


--------------------------------------------------------------------------------------------------------




--------------------------------------- Iteration      1(   8)  ---------------------------------------


    POTLOK:  cpu time    0.0307: real time    0.0307
    SETDIJ:  cpu time    0.0019: real time    0.0019
     EDDAV:  cpu time    0.0154: real time    0.0154
       DOS:  cpu time    0.0001: real time    0.0001
    CHARGE:  cpu time    0.0035: real time    0.0035
    MIXING:  cpu time    0.0015: real time    0.0015
    --------------------------------------------
      LOOP:  cpu time    0.0531: real time    0.0531

 eigenvalue-minimisations  :    24
 total energy-change (2. order) : 0.1950402E-04  (-0.3216934E-05)
 number of electron       7.9999999 magnetization 
 augmentation part       -0.3242195 magnetization 

 Broyden mixing:
  rms(total) = 0.32739E-03    rms(broyden)= 0.32739E-03
  rms(prec ) = 0.62714E-03
  weight for this iteration     100.00

 eigenvalues of (default mixing * dielectric matrix)
  average eigenvalue GAMMA=   1.9488
  2.9076  2.9076  2.3942  2.3942  1.0389  1.0389  0.9602

 Free energy of the ion-electron system (eV)
  ---------------------------------------------------
  alpha Z        PSCENC =         3.33880741
  Ewald energy   TEWEN  =      -227.98820643
  -Hartree energ DENC   =       -23.09319859
  -exchange      EXHF   =         0.00000000
  -V(xc)+E(xc)   XCENC  =       -17.00861342
  PAW double counting   =       878.35640656     -843.46536747
  entropy T*S    EENTRO =        -0.00000000
  eigenvalues    EBANDS =        29.81010335
  atomic energy  EATOM  =       206.13311910
  Solvation  Ediel_sol  =         0.00000000
  ---------------------------------------------------
  free energy    TOTEN  =         6.08305052 eV

  energy without entropy =        6.08305052  energy(sigma->0) =        6.08305052


--------------------------------------------------------------------------------------------------------




--------------------------------------- Iteration      1(   9)  ---------------------------------------


    POTLOK:  cpu time    0.0307: real time    0.0307
    SETDIJ:  cpu time    0.0019: real time    0.0019
     EDDAV:  cpu time    0.0119: real time    0.0119
       DOS:  cpu time    0.0001: real time    0.0001
    --------------------------------------------
      LOOP:  cpu time    0.0446: real time    0.0446

 eigenvalue-minimisations  :    16
 total energy-change (2. order) :-0.2710109E-05  (-0.1406691E-06)
 number of electron       7.9999999 magnetization 
 augmentation part       -0.3242195 magnetization 

 Free energy of the ion-electron system (eV)
  ---------------------------------------------------
  alpha Z        PSCENC =         3.33880741
  Ewald energy   TEWEN  =      -227.98820643
  -Hartree energ DENC   =       -23.09400126
  -exchange      EXHF   =         0.00000000
  -V(xc)+E(xc)   XCENC  =       -17.00828868
  PAW double counting   =       880.01500653     -845.12462537
  entropy T*S    EENTRO =        -0.00000000
  eigenvalues    EBANDS =        29.81123650
  atomic energy  EATOM  =       206.13311910
  Solvation  Ediel_sol  =         0.00000000
  ---------------------------------------------------
  free energy    TOTEN  =         6.08304781 eV

  energy without entropy =        6.08304781  energy(sigma->0) =        6.08304781


--------------------------------------------------------------------------------------------------------




 average (electrostatic) potential at core
  the test charge radii are     0.9892
  (the norm of the test charge is              1.0000)
       1 -81.8933       2 -81.8933
 
 
 
 E-fermi :   7.7624     XC(G=0):  -8.9011     alpha+bet :-11.8943


 k-point     1 :       0.0000    0.0000    0.0000
  band No.  band energies     occupation 
      1      -5.3453      2.00000
      2       6.7503      2.00000
      3       6.7503      2.00000
      4       6.7503      2.00000
      5       9.0386      0.00000
      6       9.0386      0.00000
      7       9.0386      0.00000
      8      10.1435      0.00000
      9      13.9772      0.00000
     10      14.0242      0.00000
     11      14.0242      0.00000
     12      17.3147      0.00000


--------------------------------------------------------------------------------------------------------


 soft charge-density along one line, spin component           1
         0         1         2         3         4         5         6         7         8         9
x     8.3242    0.0000    2.3285    0.0000    0.9448    0.0000    0.1977    0.0000   -0.0002   -0.0000
x    -0.0121   -0.0000   -0.0030   -0.0000    0.0000   -0.0000    0.0001    0.0000    0.0000   -0.0000
x    -0.0000   -0.0000   -0.0000   -0.0000    0.0000    0.0000
y     8.3242    0.0000    2.3285    0.0000    0.9448    0.0000    0.1977    0.0000   -0.0002   -0.0000
y    -0.0121   -0.0000   -0.0030   -0.0000    0.0000   -0.0000    0.0001    0.0000    0.0000   -0.0000
y    -0.0000   -0.0000   -0.0000   -0.0000    0.0000    0.0000
z     8.3242    0.0000    2.3285    0.0000    0.9448    0.0000    0.1977    0.0000   -0.0002   -0.0000
z    -0.0121   -0.0000   -0.0030   -0.0000    0.0000   -0.0000    0.0001    0.0000    0.0000   -0.0000
z    -0.0000   -0.0000   -0.0000   -0.0000    0.0000    0.0000
 total charge-density along one line
x     8.0000    0.0000    2.1326    0.0000    0.9449    0.0000    0.2453    0.0000    0.0129   -0.0000
x    -0.0128   -0.0000   -0.0030   -0.0000   -0.0002   -0.0000    0.0001   -0.0000    0.0001   -0.0000
x    -0.0000   -0.0000    0.0000    0.0000   -0.0000    0.0000    0.0000    0.0000    0.0000    0.0000
x     0.0000    0.0000   -0.0000   -0.0000   -0.0000   -0.0000    0.0000    0.0000   -0.0000   -0.0000
x     0.0000   -0.0000   -0.0000    0.0000   -0.0000    0.0000   -0.0000   -0.0000    0.0000    0.0000
y     8.0000    0.0000    2.1326    0.0000    0.9449    0.0000    0.2453    0.0000    0.0129   -0.0000
y    -0.0128   -0.0000   -0.0030    0.0000   -0.0002   -0.0000    0.0001   -0.0000    0.0001    0.0000
y    -0.0000    0.0000    0.0000   -0.0000   -0.0000   -0.0000    0.0000   -0.0000   -0.0000   -0.0000
y     0.0000    0.0000   -0.0000   -0.0000   -0.0000   -0.0000    0.0000   -0.0000   -0.0000   -0.0000
y     0.0000    0.0000   -0.0000    0.0000   -0.0000    0.0000   -0.0000    0.0000    0.0000   -0.0000
z     8.0000    0.0000    2.1326    0.0000    0.9449    0.0000    0.2453    0.0000    0.0129   -0.0000
z    -0.0128    0.0000   -0.0030   -0.0000   -0.0002   -0.0000    0.0001   -0.0000    0.0001    0.0000
z    -0.0000    0.0000    0.0000    0.0000   -0.0000    0.0000    0.0000   -0.0000    0.0000   -0.0000
z     0.0000    0.0000   -0.0000    0.0000   -0.0000   -0.0000   -0.0000    0.0000   -0.0000   -0.0000
z     0.0000    0.0000   -0.0000    0.0000   -0.0000    0.0000   -0.0000    0.0000    0.0000   -0.0000
 
 pseudopotential strength for first ion, spin component:           1
 18.275  25.496   0.000   0.000   0.000   0.000   0.000   0.000
 25.496  35.574   0.000   0.000   0.000   0.000   0.000   0.000
  0.000   0.000   4.162  -0.000  -0.000   7.754  -0.000  -0.000
  0.000   0.000  -0.000   4.162  -0.000  -0.000   7.754  -0.000
  0.000   0.000  -0.000  -0.000   4.162  -0.000  -0.000   7.754
  0.000   0.000   7.754  -0.000  -0.000  14.458  -0.000  -0.000
  0.000   0.000  -0.000   7.754  -0.000  -0.000  14.458  -0.000
  0.000   0.000  -0.000  -0.000   7.754  -0.000  -0.000  14.458
 total augmentation occupancy for first ion, spin component:           1
  7.972  -3.986  -0.000   0.000   0.000   0.000   0.000  -0.000
 -3.986   1.993  -0.000   0.000   0.000   0.000   0.000   0.000
 -0.000  -0.000   2.441  -0.000   0.000  -0.298   0.000  -0.000
  0.000   0.000  -0.000   2.441   0.000   0.000  -0.298  -0.000
  0.000   0.000   0.000   0.000   2.441  -0.000  -0.000  -0.298
  0.000   0.000  -0.298  -0.000  -0.000   0.036  -0.000   0.000
  0.000   0.000  -0.000  -0.298  -0.000   0.000   0.036   0.000
 -0.000   0.000  -0.000  -0.000  -0.298   0.000   0.000   0.036


------------------------ aborting loop because EDIFF is reached ----------------------------------------


 


 total charge     
 
# of ion       s       p       d       tot
------------------------------------------
    1        0.409   1.261   0.000   1.671
    2        0.409   1.261   0.000   1.671
--------------------------------------------------
tot          0.819   2.523   0.000   3.341
 
    CHARGE:  cpu time    0.0034: real time    0.0034
    FORLOC:  cpu time    0.0013: real time    0.0013
    FORNL :  cpu time    0.0049: real time    0.0049
    STRESS:  cpu time    0.0165: real time    0.0176
    FORCOR:  cpu time    0.0313: real time    0.0313
    FORHAR:  cpu time    0.0062: real time    0.0062
    MIXING:  cpu time    0.0016: real time    0.0016
    OFIELD:  cpu time    0.0000: real time    0.0000

  FORCE on cell =-STRESS in cart. coord.  units (eV):
  Direction    XX          YY          ZZ          XY          YZ          ZX
  --------------------------------------------------------------------------------------
  Alpha Z     3.33881     3.33881     3.33881
  Ewald     -75.99608   -75.99616   -75.99607     0.00001    -0.00000     0.00000
  Hartree     7.69868     7.69867     7.69868     0.00000     0.00000     0.00000
  E(xc)     -26.73059   -26.73059   -26.73059    -0.00000    -0.00000    -0.00000
  Local     -33.35490   -33.35487   -33.35489    -0.00000     0.00001     0.00001
  n-local    67.41656    67.41652    67.41657    -0.00002     0.00002     0.00003
  augment    -8.23243    -8.23243    -8.23244    -0.00000    -0.00001    -0.00001
  Kinetic    76.33705    76.33712    76.33714    -0.00004     0.00000    -0.00003
  Fock        0.00000     0.00000     0.00000     0.00000     0.00000     0.00000
  -------------------------------------------------------------------------------------
  Total      10.47712    10.47713    10.47712     0.00000     0.00000     0.00000
  in kB     416.22615   416.22648   416.22604     0.00000     0.00000     0.00000
  external pressure =      416.23 kB  Pullay stress =        0.00 kB


 VOLUME and BASIS-vectors are now :
 -----------------------------------------------------------------------------
  energy-cutoff  :      600.00
  volume of cell :       40.33
      direct lattice vectors                 reciprocal lattice vectors
     3.333573000  0.000000000  1.924639000     0.299978432 -0.106058350  0.000000000
     1.111191000  3.142924000  1.924639000     0.000000000  0.318175050  0.000000000
     0.000000000  0.000000000  3.849278000    -0.149989216 -0.106058350  0.259788979

  length of vectors
     3.849278403  3.849279412  3.849278000     0.318175161  0.318175050  0.318175190


 FORCES acting on ions
    electron-ion (+dipol)            ewald-force                    non-local-force                 convergence-correction
 -----------------------------------------------------------------------------------------------
   0.804E-05 0.372E-04 0.180E-06   -.892E-05 -.418E-04 -.429E-15   0.527E-22 0.119E-20 -.335E-20   -.124E-08 -.206E-08 -.164E-08
   -.804E-05 -.372E-04 -.180E-06   0.892E-05 0.418E-04 0.408E-15   0.769E-21 0.309E-21 0.527E-20   0.124E-08 0.206E-08 0.164E-08
 -----------------------------------------------------------------------------------------------
   -.104E-13 -.575E-14 -.247E-14   -.341E-15 0.468E-16 -.212E-16   0.821E-21 0.150E-20 0.192E-20   -.141E-14 -.117E-14 -.290E-14
 
 
 POSITION                                       TOTAL-FORCE (eV/Angst)
 -----------------------------------------------------------------------------------
      3.88917      2.75006      6.73624         0.000000      0.000000      0.000000
      0.55560      0.39287      0.96232        -0.000000     -0.000000     -0.000000
 -----------------------------------------------------------------------------------
    total drift:                               -0.000000     -0.000000     -0.000000


--------------------------------------------------------------------------------------------------------



  FREE ENERGIE OF THE ION-ELECTRON SYSTEM (eV)
  ---------------------------------------------------
  free  energy   TOTEN  =         6.08304781 eV

  energy  without entropy=        6.08304781  energy(sigma->0) =        6.08304781
 


--------------------------------------------------------------------------------------------------------


    POTLOK:  cpu time    0.0329: real time    0.0329


--------------------------------------------------------------------------------------------------------


 writing wavefunctions
     LOOP+:  cpu time    0.6549: real time    0.6577
    4ORBIT:  cpu time    0.0000: real time    0.0000
 


 total charge     
 
# of ion       s       p       d       tot
------------------------------------------
    1        0.409   1.261   0.000   1.671
    2        0.409   1.261   0.000   1.671
--------------------------------------------------
tot          0.819   2.523   0.000   3.341
 

 total amount of memory used by VASP MPI-rank0    36418. kBytes
=======================================================================

   base      :      30000. kBytes
   nonl-proj :        130. kBytes
   grid      :       6018. kBytes
   one-center:          6. kBytes
   wavefun   :        264. kBytes
 
  
  
 General timing and accounting informations for this job:
 ========================================================
  
                  Total CPU time used (sec):        0.884
                            User time (sec):        0.836
                          System time (sec):        0.048
                         Elapsed time (sec):        0.896
  
                   Maximum memory used (kb):       23376.
                   Average memory used (kb):           0.
  
                          Minor page faults:        17457
                          Major page faults:           12
                 Voluntary context switches:           30
