    2    2    1    1
  0.2045452E+02  0.3867629E-09  0.3867629E-09  0.3867629E-09  0.5000000E-15
  1.000000000000000E-004
  CAR 
 unknown system                          
      8     19      8
 
  0.0000000E+00  0.0000000E+00  0.0000000E+00  0.5263158E-01
    1       -6.200371   1.000000
    2        5.622880   1.000000
    3        5.622896   1.000000
    4        5.622896   1.000000
    5        8.181780   0.000000
    6        8.181797   0.000000
    7        8.181797   0.000000
    8        8.739255   0.000000
 
 -0.1000000E-01  0.0000000E+00  0.0000000E+00  0.5263158E-01
    1       -6.199087   1.000000
    2        5.606721   1.000000
    3        5.620631   1.000000
    4        5.620646   1.000000
    5        8.185068   0.000000
    6        8.185083   0.000000
    7        8.186225   0.000000
    8        8.748709   0.000000
 
  0.1000000E-01  0.0000000E+00  0.0000000E+00  0.5263158E-01
    1       -6.199087   1.000000
    2        5.606721   1.000000
    3        5.620631   1.000000
    4        5.620646   1.000000
    5        8.185068   0.000000
    6        8.185083   0.000000
    7        8.186225   0.000000
    8        8.748709   0.000000
 
  0.0000000E+00 -0.1000000E-01  0.0000000E+00  0.5263158E-01
    1       -6.199087   1.000000
    2        5.606721   1.000000
    3        5.620631   1.000000
    4        5.620646   1.000000
    5        8.185068   0.000000
    6        8.185083   0.000000
    7        8.186225   0.000000
    8        8.748709   0.000000
 
  0.0000000E+00  0.1000000E-01  0.0000000E+00  0.5263158E-01
    1       -6.199087   1.000000
    2        5.606721   1.000000
    3        5.620631   1.000000
    4        5.620646   1.000000
    5        8.185068   0.000000
    6        8.185083   0.000000
    7        8.186225   0.000000
    8        8.748709   0.000000
 
  0.0000000E+00  0.0000000E+00 -0.1000000E-01  0.5263158E-01
    1       -6.199087   1.000000
    2        5.606721   1.000000
    3        5.620631   1.000000
    4        5.620646   1.000000
    5        8.185068   0.000000
    6        8.185083   0.000000
    7        8.186225   0.000000
    8        8.748709   0.000000
 
  0.0000000E+00  0.0000000E+00  0.1000000E-01  0.5263158E-01
    1       -6.199087   1.000000
    2        5.606721   1.000000
    3        5.620631   1.000000
    4        5.620646   1.000000
    5        8.185068   0.000000
    6        8.185083   0.000000
    7        8.186225   0.000000
    8        8.748709   0.000000
 
 -0.1000000E-01 -0.1000000E-01  0.0000000E+00  0.5263158E-01
    1       -6.198658   1.000000
    2        5.610214   1.000000
    3        5.615429   1.000000
    4        5.615440   1.000000
    5        8.177485   0.000000
    6        8.191370   0.000000
    7        8.191381   0.000000
    8        8.751690   0.000000
 
  0.1000000E-01  0.1000000E-01  0.0000000E+00  0.5263158E-01
    1       -6.198658   1.000000
    2        5.610214   1.000000
    3        5.615429   1.000000
    4        5.615440   1.000000
    5        8.177485   0.000000
    6        8.191370   0.000000
    7        8.191381   0.000000
    8        8.751690   0.000000
 
  0.1000000E-01 -0.1000000E-01  0.0000000E+00  0.5263158E-01
    1       -6.196941   1.000000
    2        5.584583   1.000000
    3        5.607979   1.000000
    4        5.621349   1.000000
    5        8.185336   0.000000
    6        8.188814   0.000000
    7        8.200047   0.000000
    8        8.764617   0.000000
 
 -0.1000000E-01  0.1000000E-01  0.0000000E+00  0.5263158E-01
    1       -6.196941   1.000000
    2        5.584583   1.000000
    3        5.607979   1.000000
    4        5.621349   1.000000
    5        8.185336   0.000000
    6        8.188814   0.000000
    7        8.200047   0.000000
    8        8.764617   0.000000
 
 -0.1000000E-01  0.0000000E+00 -0.1000000E-01  0.5263158E-01
    1       -6.198658   1.000000
    2        5.610214   1.000000
    3        5.615429   1.000000
    4        5.615440   1.000000
    5        8.177485   0.000000
    6        8.191370   0.000000
    7        8.191381   0.000000
    8        8.751690   0.000000
 
  0.1000000E-01  0.0000000E+00  0.1000000E-01  0.5263158E-01
    1       -6.198658   1.000000
    2        5.610214   1.000000
    3        5.615429   1.000000
    4        5.615440   1.000000
    5        8.177485   0.000000
    6        8.191370   0.000000
    7        8.191381   0.000000
    8        8.751690   0.000000
 
  0.1000000E-01  0.0000000E+00 -0.1000000E-01  0.5263158E-01
    1       -6.196941   1.000000
    2        5.584583   1.000000
    3        5.607979   1.000000
    4        5.621349   1.000000
    5        8.185337   0.000000
    6        8.188814   0.000000
    7        8.200047   0.000000
    8        8.764617   0.000000
 
 -0.1000000E-01  0.0000000E+00  0.1000000E-01  0.5263158E-01
    1       -6.196941   1.000000
    2        5.584583   1.000000
    3        5.607979   1.000000
    4        5.621349   1.000000
    5        8.185336   0.000000
    6        8.188814   0.000000
    7        8.200047   0.000000
    8        8.764617   0.000000
 
  0.0000000E+00 -0.1000000E-01 -0.1000000E-01  0.5263158E-01
    1       -6.198658   1.000000
    2        5.610214   1.000000
    3        5.615429   1.000000
    4        5.615440   1.000000
    5        8.177485   0.000000
    6        8.191370   0.000000
    7        8.191381   0.000000
    8        8.751690   0.000000
 
  0.0000000E+00  0.1000000E-01  0.1000000E-01  0.5263158E-01
    1       -6.198658   1.000000
    2        5.610214   1.000000
    3        5.615429   1.000000
    4        5.615440   1.000000
    5        8.177485   0.000000
    6        8.191370   0.000000
    7        8.191381   0.000000
    8        8.751690   0.000000
 
  0.0000000E+00  0.1000000E-01 -0.1000000E-01  0.5263158E-01
    1       -6.196941   1.000000
    2        5.584583   1.000000
    3        5.607979   1.000000
    4        5.621349   1.000000
    5        8.185337   0.000000
    6        8.188814   0.000000
    7        8.200047   0.000000
    8        8.764617   0.000000
 
  0.0000000E+00 -0.1000000E-01  0.1000000E-01  0.5263158E-01
    1       -6.196941   1.000000
    2        5.584583   1.000000
    3        5.607979   1.000000
    4        5.621349   1.000000
    5        8.185343   0.000000
    6        8.188815   0.000000
    7        8.200048   0.000000
    8        8.764623   0.000000
