<?xml version="1.0" encoding="ISO-8859-1"?>
<modeling>
 <generator>
  <i name="program" type="string">vasp </i>
  <i name="version" type="string">5.4.4.18Apr17-6-g9f103f2a35  </i>
  <i name="subversion" type="string">(build Sep 03 2019 17:22:03) complex            serial </i>
  <i name="platform" type="string">LinuxIFC </i>
  <i name="date" type="string">2024 12 14 </i>
  <i name="time" type="string">14:46:53 </i>
 </generator>
 <incar>
  <i type="string" name="PREC">normal</i>
  <i type="int" name="ICHARG">    11</i>
  <i type="int" name="IWAVPR">    10</i>
  <i name="ENCUT">    250.00000000</i>
  <i type="int" name="ISMEAR">     0</i>
  <i name="SIGMA">      0.01000000</i>
  <i type="logical" name="LWAVE"> F  </i>
  <v type="int" name="KPOINT_BSE">    -1     0     0     0</v>
 </incar>
 <structure name="primitive_cell" >
  <crystal>
   <varray name="basis" >
    <v>       0.00000000       2.73482640       2.73482640 </v>
    <v>       2.73482640       0.00000000       2.73482640 </v>
    <v>       2.73482640       2.73482640       0.00000000 </v>
   </varray>
   <i name="volume">     40.90903976 </i>
   <varray name="rec_basis" >
    <v>      -0.18282696       0.18282696       0.18282696 </v>
    <v>       0.18282696      -0.18282696       0.18282696 </v>
    <v>       0.18282696       0.18282696      -0.18282696 </v>
   </varray>
  </crystal>
  <varray name="positions" >
   <v>       0.00000000       0.00000000       0.00000000 </v>
   <v>       0.25000000       0.25000000       0.25000000 </v>
  </varray>
 </structure>
 <varray name="primitive_index" >
  <v type="int" >        1 </v>
  <v type="int" >        2 </v>
 </varray>
 <kpoints>
  <varray name="kpointlist" >
   <v>       0.00000000       0.00000000       0.00000000 </v>
   <v>      -0.01000000       0.00000000       0.00000000 </v>
   <v>       0.01000000       0.00000000       0.00000000 </v>
   <v>       0.00000000      -0.01000000       0.00000000 </v>
   <v>       0.00000000       0.01000000       0.00000000 </v>
   <v>       0.00000000       0.00000000      -0.01000000 </v>
   <v>       0.00000000       0.00000000       0.01000000 </v>
   <v>      -0.01000000      -0.01000000       0.00000000 </v>
   <v>       0.01000000       0.01000000       0.00000000 </v>
   <v>       0.01000000      -0.01000000       0.00000000 </v>
   <v>      -0.01000000       0.01000000       0.00000000 </v>
   <v>      -0.01000000       0.00000000      -0.01000000 </v>
   <v>       0.01000000       0.00000000       0.01000000 </v>
   <v>       0.01000000       0.00000000      -0.01000000 </v>
   <v>      -0.01000000       0.00000000       0.01000000 </v>
   <v>       0.00000000      -0.01000000      -0.01000000 </v>
   <v>       0.00000000       0.01000000       0.01000000 </v>
   <v>       0.00000000       0.01000000      -0.01000000 </v>
   <v>       0.00000000      -0.01000000       0.01000000 </v>
  </varray>
  <varray name="weights" >
   <v>       0.05263158 </v>
   <v>       0.05263158 </v>
   <v>       0.05263158 </v>
   <v>       0.05263158 </v>
   <v>       0.05263158 </v>
   <v>       0.05263158 </v>
   <v>       0.05263158 </v>
   <v>       0.05263158 </v>
   <v>       0.05263158 </v>
   <v>       0.05263158 </v>
   <v>       0.05263158 </v>
   <v>       0.05263158 </v>
   <v>       0.05263158 </v>
   <v>       0.05263158 </v>
   <v>       0.05263158 </v>
   <v>       0.05263158 </v>
   <v>       0.05263158 </v>
   <v>       0.05263158 </v>
   <v>       0.05263158 </v>
  </varray>
 </kpoints>
 <parameters>
  <separator name="general" >
   <i type="string" name="SYSTEM">unknown system</i>
   <i type="logical" name="LCOMPAT"> F  </i>
  </separator>
  <separator name="electronic" >
   <i type="string" name="PREC">normal</i>
   <i name="ENMAX">    250.00000000</i>
   <i name="ENAUG">    322.06900000</i>
   <i name="EDIFF">      0.00010000</i>
   <i type="int" name="IALGO">    38</i>
   <i type="int" name="IWAVPR">    10</i>
   <i type="int" name="NBANDS">     8</i>
   <i name="NELECT">      8.00000000</i>
   <i type="int" name="TURBO">     0</i>
   <i type="int" name="IRESTART">     0</i>
   <i type="int" name="NREBOOT">     0</i>
   <i type="int" name="NMIN">     0</i>
   <i name="EREF">      0.00000000</i>
   <separator name="electronic smearing" >
    <i type="int" name="ISMEAR">     0</i>
    <i name="SIGMA">      0.01000000</i>
    <i name="KSPACING">      0.50000000</i>
    <i type="logical" name="KGAMMA"> T  </i>
   </separator>
   <separator name="electronic projectors" >
    <i type="logical" name="LREAL"> F  </i>
    <v name="ROPT">      0.00000000</v>
    <i type="int" name="LMAXPAW">  -100</i>
    <i type="int" name="LMAXMIX">     2</i>
    <i type="logical" name="NLSPLINE"> F  </i>
   </separator>
   <separator name="electronic startup" >
    <i type="int" name="ISTART">     0</i>
    <i type="int" name="ICHARG">    11</i>
    <i type="int" name="INIWAV">     1</i>
   </separator>
   <separator name="electronic spin" >
    <i type="int" name="ISPIN">     1</i>
    <i type="logical" name="LNONCOLLINEAR"> F  </i>
    <v name="MAGMOM">      1.00000000      1.00000000</v>
    <i name="NUPDOWN">     -1.00000000</i>
    <i type="logical" name="LSORBIT"> F  </i>
    <v name="SAXIS">      0.00000000      0.00000000      1.00000000</v>
    <i type="logical" name="LSPIRAL"> F  </i>
    <v name="QSPIRAL">      0.00000000      0.00000000      0.00000000</v>
    <i type="logical" name="LZEROZ"> F  </i>
   </separator>
   <separator name="electronic exchange-correlation" >
    <i type="logical" name="LASPH"> F  </i>
    <i type="logical" name="LMETAGGA"> F  </i>
   </separator>
   <separator name="electronic convergence" >
    <i type="int" name="NELM">    60</i>
    <i type="int" name="NELMDL">     0</i>
    <i type="int" name="NELMIN">     2</i>
    <i name="ENINI">    250.00000000</i>
    <separator name="electronic convergence detail" >
     <i type="logical" name="LDIAG"> T  </i>
     <i type="logical" name="LSUBROT"> F  </i>
     <i name="WEIMIN">      0.00000000</i>
     <i name="EBREAK">      0.00000313</i>
     <i name="DEPER">      0.30000000</i>
     <i type="int" name="NRMM">     4</i>
     <i name="TIME">      0.40000000</i>
    </separator>
   </separator>
   <separator name="electronic mixer" >
    <i name="AMIX">      0.40000000</i>
    <i name="BMIX">      1.00000000</i>
    <i name="AMIN">      0.10000000</i>
    <i name="AMIX_MAG">      1.60000000</i>
    <i name="BMIX_MAG">      1.00000000</i>
    <separator name="electronic mixer details" >
     <i type="int" name="IMIX">     4</i>
     <i type="logical" name="MIXFIRST"> F  </i>
     <i type="int" name="MAXMIX">   -45</i>
     <i name="WC">    100.00000000</i>
     <i type="int" name="INIMIX">     1</i>
     <i type="int" name="MIXPRE">     1</i>
     <i type="int" name="MREMOVE">     5</i>
    </separator>
   </separator>
   <separator name="electronic dipolcorrection" >
    <i type="logical" name="LDIPOL"> F  </i>
    <i type="logical" name="LMONO"> F  </i>
    <i type="int" name="IDIPOL">     0</i>
    <i name="EPSILON">      1.00000000</i>
    <v name="DIPOL">   -100.00000000   -100.00000000   -100.00000000</v>
    <i name="EFIELD">      0.00000000</i>
   </separator>
  </separator>
  <separator name="grids" >
   <i type="int" name="NGX">    16</i>
   <i type="int" name="NGY">    16</i>
   <i type="int" name="NGZ">    16</i>
   <i type="int" name="NGXF">    32</i>
   <i type="int" name="NGYF">    32</i>
   <i type="int" name="NGZF">    32</i>
   <i type="logical" name="ADDGRID"> F  </i>
  </separator>
  <separator name="ionic" >
   <i type="int" name="NSW">     0</i>
   <i type="int" name="IBRION">    -1</i>
   <i type="int" name="MDALGO">     0</i>
   <i type="int" name="ISIF">     2</i>
   <i name="PSTRESS">      0.00000000</i>
   <i name="EDIFFG">      0.00100000</i>
   <i type="int" name="NFREE">     0</i>
   <i name="POTIM">      0.50000000</i>
   <i name="SMASS">     -3.00000000</i>
   <i name="SCALEE">      1.00000000</i>
  </separator>
  <separator name="ionic md" >
   <i name="TEBEG">      0.00010000</i>
   <i name="TEEND">      0.00010000</i>
   <i type="int" name="NBLOCK">     1</i>
   <i type="int" name="KBLOCK">     1</i>
   <i type="int" name="NPACO">   256</i>
   <i name="APACO">     16.00000000</i>
  </separator>
  <separator name="symmetry" >
   <i type="int" name="ISYM">     2</i>
   <i name="SYMPREC">      0.00001000</i>
  </separator>
  <separator name="dos" >
   <i type="int" name="LORBIT">     0</i>
   <v name="RWIGS">     -1.00000000</v>
   <i type="int" name="NEDOS">   301</i>
   <i name="EMIN">     10.00000000</i>
   <i name="EMAX">    -10.00000000</i>
   <i name="EFERMI">      0.00000000</i>
  </separator>
  <separator name="writing" >
   <i type="int" name="NWRITE">     2</i>
   <i type="logical" name="LWAVE"> F  </i>
   <i type="logical" name="LDOWNSAMPLE"> F  </i>
   <i type="logical" name="LCHARG"> T  </i>
   <i type="logical" name="LPARD"> F  </i>
   <i type="logical" name="LVTOT"> F  </i>
   <i type="logical" name="LVHAR"> F  </i>
   <i type="logical" name="LELF"> F  </i>
   <i type="logical" name="LOPTICS"> F  </i>
   <v name="STM">      0.00000000      0.00000000      0.00000000      0.00000000      0.00000000      0.00000000      0.00000000</v>
  </separator>
  <separator name="performance" >
   <i type="int" name="NPAR">     1</i>
   <i type="int" name="NSIM">     4</i>
   <i type="int" name="NBLK">    -1</i>
   <i type="logical" name="LPLANE"> T  </i>
   <i type="logical" name="LSCALAPACK"> F  </i>
   <i type="logical" name="LSCAAWARE"> F  </i>
   <i type="logical" name="LSCALU"> F  </i>
   <i type="logical" name="LASYNC"> F  </i>
   <i type="logical" name="LORBITALREAL"> F  </i>
  </separator>
  <separator name="miscellaneous" >
   <i type="int" name="IDIOT">     3</i>
   <i type="int" name="ISPECIAL">     0</i>
   <i type="logical" name="LMUSIC"> F  </i>
   <v name="POMASS">     28.08500000</v>
   <v name="DARWINR">      0.00000000</v>
   <v name="DARWINV">      1.00000000</v>
   <i type="logical" name="LCORR"> T  </i>
  </separator>
  <i type="logical" name="GGA_COMPAT"> T  </i>
  <i type="logical" name="LBERRY"> F  </i>
  <i type="int" name="ICORELEVEL">     0</i>
  <i type="logical" name="LDAU"> F  </i>
  <i type="int" name="I_CONSTRAINED_M">     0</i>
  <separator name="electronic exchange-correlation" >
   <i type="string" name="GGA">--</i>
   <i type="int" name="VOSKOWN">     0</i>
   <i type="logical" name="LHFCALC"> F  </i>
   <i type="string" name="PRECFOCK"></i>
   <i type="logical" name="LSYMGRAD"> F  </i>
   <i type="logical" name="LHFONE"> F  </i>
   <i type="logical" name="LRHFCALC"> F  </i>
   <i type="logical" name="LTHOMAS"> F  </i>
   <i type="logical" name="LMODELHF"> F  </i>
   <i name="ENCUT4O">     -1.00000000</i>
   <i type="int" name="EXXOEP">     0</i>
   <i type="int" name="FOURORBIT">     0</i>
   <i name="AEXX">      0.00000000</i>
   <i name="HFALPHA">      0.00000000</i>
   <i name="MCALPHA">      0.00000000</i>
   <i name="ALDAX">      1.00000000</i>
   <i name="AGGAX">      1.00000000</i>
   <i name="ALDAC">      1.00000000</i>
   <i name="AGGAC">      1.00000000</i>
   <i type="int" name="NKREDX">     1</i>
   <i type="int" name="NKREDY">     1</i>
   <i type="int" name="NKREDZ">     1</i>
   <i type="logical" name="SHIFTRED"> F  </i>
   <i type="logical" name="ODDONLY"> F  </i>
   <i type="logical" name="EVENONLY"> F  </i>
   <i type="int" name="LMAXFOCK">     0</i>
   <i type="int" name="NMAXFOCKAE">     0</i>
   <i type="logical" name="LFOCKAEDFT"> F  </i>
   <i name="HFSCREEN">      0.00000000</i>
   <i name="HFSCREENC">      0.00000000</i>
   <i type="int" name="NBANDSGWLOW">     0</i>
  </separator>
  <separator name="vdW DFT" >
   <i type="logical" name="LUSE_VDW"> F  </i>
   <i name="Zab_VDW">     -0.84910000</i>
   <i name="PARAM1">      0.12340000</i>
   <i name="PARAM2">      1.00000000</i>
   <i name="PARAM3">      0.00000000</i>
  </separator>
  <separator name="model GW" >
   <i type="int" name="MODEL_GW">     0</i>
   <i name="MODEL_EPS0">     12.27271193</i>
   <i name="MODEL_ALPHA">      1.00000000</i>
  </separator>
  <separator name="linear response parameters" >
   <i type="logical" name="LEPSILON"> F  </i>
   <i type="logical" name="LRPA"> F  </i>
   <i type="logical" name="LNABLA"> F  </i>
   <i type="logical" name="LVEL"> F  </i>
   <i type="int" name="KINTER">     0</i>
   <i name="CSHIFT">      0.10000000</i>
   <i name="OMEGAMAX">     -1.00000000</i>
   <i name="DEG_THRESHOLD">      0.00200000</i>
   <i name="RTIME">     -0.10000000</i>
   <i name="WPLASMAI">      0.00000000</i>
   <v name="DFIELD">      0.00000000      0.00000000      0.00000000</v>
   <v name="WPLASMA">      0.00000000      0.00000000      0.00000000      0.00000000      0.00000000      0.00000000      0.00000000      0.00000000      0.00000000</v>
  </separator>
  <separator name="orbital magnetization" >
   <i type="logical" name="NUCIND"> F  </i>
   <v name="MAGPOS">      0.00000000      0.00000000      0.00000000</v>
   <i type="logical" name="LNICSALL"> T  </i>
   <i type="logical" name="ORBITALMAG"> F  </i>
   <i type="logical" name="LMAGBLOCH"> F  </i>
   <i type="logical" name="LCHIMAG"> F  </i>
   <i type="logical" name="LGAUGE"> T  </i>
   <i type="int" name="MAGATOM">     0</i>
   <v name="MAGDIPOL">      0.00000000      0.00000000      0.00000000</v>
   <v name="AVECCONST">      0.00000000      0.00000000      0.00000000</v>
  </separator>
  <separator name="response functions" >
   <i type="logical" name="LADDER"> F  </i>
   <i type="logical" name="LRPAFORCE"> F  </i>
   <i type="logical" name="LFXC"> F  </i>
   <i type="logical" name="LHARTREE"> T  </i>
   <i type="int" name="IBSE">     0</i>
   <v type="int" name="KPOINT">    -1     0     0     0</v>
   <i type="logical" name="LTCTE"> F  </i>
   <i type="logical" name="LTETE"> F  </i>
   <i type="logical" name="LTRIPLET"> F  </i>
   <i type="logical" name="LFXCEPS"> F  </i>
   <i type="logical" name="LFXHEG"> F  </i>
   <i type="int" name="NATURALO">     2</i>
   <i type="logical" name="L2ORDER"> F  </i>
   <i type="logical" name="LMP2LT"> F  </i>
   <i type="logical" name="LUSEW"> F  </i>
   <i name="ENCUTGW">     -2.00000000</i>
   <i name="ENCUTGWSOFT">     -2.00000000</i>
   <i name="ENCUTLF">     -1.00000000</i>
   <i type="int" name="LMAXMP2">    -1</i>
   <i name="SCISSOR">      0.00000000</i>
   <i type="int" name="NOMEGA">     0</i>
   <i type="int" name="NOMEGAR">     0</i>
   <i type="int" name="NBANDSGW">    -1</i>
   <i type="int" name="NBANDSO">    -1</i>
   <i type="int" name="NBANDSV">    -1</i>
   <i type="int" name="NELM">     1</i>
   <i type="int" name="NELMHF">     1</i>
   <i type="int" name="DIM">     3</i>
   <i type="int" name="ANTIRES">     0</i>
   <i name="OMEGAMAX">    -30.00000000</i>
   <i name="OMEGAMIN">    -30.00000000</i>
   <i name="OMEGATL">   -200.00000000</i>
   <i type="int" name="OMEGAGRID">   140</i>
   <i name="CSHIFT">     -0.10000000</i>
   <i type="logical" name="SELFENERGY"> F  </i>
   <i type="logical" name="LSPECTRAL"> F  </i>
   <i type="logical" name="LSPECTRALGW"> F  </i>
   <i type="logical" name="LSINGLES"> F  </i>
   <i type="logical" name="LFERMIGW"> F  </i>
   <i type="logical" name="ODDONLYGW"> F  </i>
   <i type="logical" name="EVENONLYGW"> F  </i>
   <i type="int" name="NKREDLFX">     1</i>
   <i type="int" name="NKREDLFY">     1</i>
   <i type="int" name="NKREDLFZ">     1</i>
   <i type="int" name="MAXMEM">  2800</i>
   <i type="int" name="TELESCOPE">     0</i>
   <i type="int" name="TAUPAR">     1</i>
   <i type="int" name="OMEGAPAR">    -1</i>
   <i name="LAMBDA">      1.00000000</i>
  </separator>
  <separator name="External order field" >
   <i name="OFIELD_KAPPA">      0.00000000</i>
   <v name="OFIELD_K">      0.00000000      0.00000000      0.00000000</v>
   <i name="OFIELD_Q6_NEAR">      0.00000000</i>
   <i name="OFIELD_Q6_FAR">      0.00000000</i>
   <i name="OFIELD_A">      0.00000000</i>
  </separator>
 </parameters>
 <atominfo>
  <atoms>       2 </atoms>
  <types>       1 </types>
  <array name="atoms" >
   <dimension dim="1">ion</dimension>
   <field type="string">element</field>
   <field type="int">atomtype</field>
   <set>
    <rc><c>Si</c><c>   1</c></rc>
    <rc><c>Si</c><c>   1</c></rc>
   </set>
  </array>
  <array name="atomtypes" >
   <dimension dim="1">type</dimension>
   <field type="int">atomspertype</field>
   <field type="string">element</field>
   <field>mass</field>
   <field>valence</field>
   <field type="string">pseudopotential</field>
   <set>
    <rc><c>   2</c><c>Si</c><c>     28.08500000</c><c>      4.00000000</c><c>  PAW_PBE Si 05Jan2001                  </c></rc>
   </set>
  </array>
 </atominfo>
 <structure name="initialpos" >
  <crystal>
   <varray name="basis" >
    <v>       0.00000000       2.73482640       2.73482640 </v>
    <v>       2.73482640       0.00000000       2.73482640 </v>
    <v>       2.73482640       2.73482640       0.00000000 </v>
   </varray>
   <i name="volume">     40.90903976 </i>
   <varray name="rec_basis" >
    <v>      -0.18282696       0.18282696       0.18282696 </v>
    <v>       0.18282696      -0.18282696       0.18282696 </v>
    <v>       0.18282696       0.18282696      -0.18282696 </v>
   </varray>
  </crystal>
  <varray name="positions" >
   <v>       0.00000000       0.00000000       0.00000000 </v>
   <v>       0.25000000       0.25000000       0.25000000 </v>
  </varray>
 </structure>
 <calculation>
  <scstep>
   <time name="dav">    0.05    0.05</time>
   <time name="total">    0.06    0.06</time>
   <energy>
    <i name="alphaZ">      3.29151024 </i>
    <i name="ewald">   -226.90653073 </i>
    <i name="hartreedc">    -15.16865851 </i>
    <i name="XCdc">    -18.05460243 </i>
    <i name="pawpsdc">    964.22820365 </i>
    <i name="pawaedc">   -929.25298209 </i>
    <i name="eentropy">     -0.00000364 </i>
    <i name="bandstr">     36.94010569 </i>
    <i name="atom">    206.12349923 </i>
    <i name="e_fr_energy">     21.20054140 </i>
    <i name="e_wo_entrp">     21.20054504 </i>
    <i name="e_0_energy">     21.20054322 </i>
   </energy>
  </scstep>
  <scstep>
   <time name="dav">    0.09    0.08</time>
   <time name="total">    0.09    0.08</time>
   <energy>
    <i name="e_fr_energy">      5.95090373 </i>
    <i name="e_wo_entrp">      5.95090373 </i>
    <i name="e_0_energy">      5.95090373 </i>
   </energy>
  </scstep>
  <scstep>
   <time name="dav">    0.05    0.05</time>
   <time name="total">    0.05    0.05</time>
   <energy>
    <i name="e_fr_energy">      5.54136085 </i>
    <i name="e_wo_entrp">      5.54136085 </i>
    <i name="e_0_energy">      5.54136085 </i>
   </energy>
  </scstep>
  <scstep>
   <time name="dav">    0.06    0.05</time>
   <time name="total">    0.06    0.05</time>
   <energy>
    <i name="e_fr_energy">      5.53607770 </i>
    <i name="e_wo_entrp">      5.53607770 </i>
    <i name="e_0_energy">      5.53607770 </i>
   </energy>
  </scstep>
  <scstep>
   <time name="dav">    0.04    0.04</time>
   <time name="total">    0.04    0.04</time>
   <energy>
    <i name="e_fr_energy">      5.53603267 </i>
    <i name="e_wo_entrp">      5.53603267 </i>
    <i name="e_0_energy">      5.53603267 </i>
   </energy>
  </scstep>
  <scstep>
   <time name="dav">    0.03    0.03</time>
   <time name="total">    0.03    0.03</time>
   <energy>
    <i name="alphaZ">      3.29151024 </i>
    <i name="ewald">   -226.90653073 </i>
    <i name="hartreedc">    -15.16865851 </i>
    <i name="XCdc">    -18.05460243 </i>
    <i name="pawpsdc">    964.22820365 </i>
    <i name="pawaedc">   -929.25298209 </i>
    <i name="eentropy">     -0.00000000 </i>
    <i name="bandstr">     21.27559255 </i>
    <i name="atom">    206.12349923 </i>
    <i name="e_fr_energy">      5.53603190 </i>
    <i name="e_wo_entrp">      5.53603190 </i>
    <i name="e_0_energy">      5.53603190 </i>
   </energy>
  </scstep>
  <structure>
   <crystal>
    <varray name="basis" >
     <v>       0.00000000       2.73482640       2.73482640 </v>
     <v>       2.73482640       0.00000000       2.73482640 </v>
     <v>       2.73482640       2.73482640       0.00000000 </v>
    </varray>
    <i name="volume">     40.90903976 </i>
    <varray name="rec_basis" >
     <v>      -0.18282696       0.18282696       0.18282696 </v>
     <v>       0.18282696      -0.18282696       0.18282696 </v>
     <v>       0.18282696       0.18282696      -0.18282696 </v>
    </varray>
   </crystal>
   <varray name="positions" >
    <v>       0.00000000       0.00000000       0.00000000 </v>
    <v>       0.25000000       0.25000000       0.25000000 </v>
   </varray>
  </structure>
  <varray name="forces" >
   <v>      -0.00000000      -0.00000000      -0.00000000 </v>
   <v>       0.00000000       0.00000000       0.00000000 </v>
  </varray>
  <varray name="stress" >
   <v>     535.30042875      -0.00000000       0.00000000 </v>
   <v>      -0.00000000     535.30042875       0.00000000 </v>
   <v>       0.00000000       0.00000000     535.30042875 </v>
  </varray>
  <energy>
   <i name="e_fr_energy">      5.53603190 </i>
   <i name="e_wo_entrp">      5.53603190 </i>
   <i name="e_0_energy">     -0.00000000 </i>
  </energy>
  <time name="totalsc">    0.41    0.37</time>
  <eigenvalues>
   <array>
    <dimension dim="1">band</dimension>
    <dimension dim="2">kpoint</dimension>
    <dimension dim="3">spin</dimension>
    <field>eigene</field>
    <field>occ</field>
    <set>
     <set comment="spin 1">
      <set comment="kpoint 1">
       <r>   -6.2004    1.0000 </r>
       <r>    5.6229    1.0000 </r>
       <r>    5.6229    1.0000 </r>
       <r>    5.6229    1.0000 </r>
       <r>    8.1818    0.0000 </r>
       <r>    8.1818    0.0000 </r>
       <r>    8.1818    0.0000 </r>
       <r>    8.7393    0.0000 </r>
      </set>
      <set comment="kpoint 2">
       <r>   -6.1991    1.0000 </r>
       <r>    5.6067    1.0000 </r>
       <r>    5.6206    1.0000 </r>
       <r>    5.6206    1.0000 </r>
       <r>    8.1851    0.0000 </r>
       <r>    8.1851    0.0000 </r>
       <r>    8.1862    0.0000 </r>
       <r>    8.7487    0.0000 </r>
      </set>
      <set comment="kpoint 3">
       <r>   -6.1991    1.0000 </r>
       <r>    5.6067    1.0000 </r>
       <r>    5.6206    1.0000 </r>
       <r>    5.6206    1.0000 </r>
       <r>    8.1851    0.0000 </r>
       <r>    8.1851    0.0000 </r>
       <r>    8.1862    0.0000 </r>
       <r>    8.7487    0.0000 </r>
      </set>
      <set comment="kpoint 4">
       <r>   -6.1991    1.0000 </r>
       <r>    5.6067    1.0000 </r>
       <r>    5.6206    1.0000 </r>
       <r>    5.6206    1.0000 </r>
       <r>    8.1851    0.0000 </r>
       <r>    8.1851    0.0000 </r>
       <r>    8.1862    0.0000 </r>
       <r>    8.7487    0.0000 </r>
      </set>
      <set comment="kpoint 5">
       <r>   -6.1991    1.0000 </r>
       <r>    5.6067    1.0000 </r>
       <r>    5.6206    1.0000 </r>
       <r>    5.6206    1.0000 </r>
       <r>    8.1851    0.0000 </r>
       <r>    8.1851    0.0000 </r>
       <r>    8.1862    0.0000 </r>
       <r>    8.7487    0.0000 </r>
      </set>
      <set comment="kpoint 6">
       <r>   -6.1991    1.0000 </r>
       <r>    5.6067    1.0000 </r>
       <r>    5.6206    1.0000 </r>
       <r>    5.6206    1.0000 </r>
       <r>    8.1851    0.0000 </r>
       <r>    8.1851    0.0000 </r>
       <r>    8.1862    0.0000 </r>
       <r>    8.7487    0.0000 </r>
      </set>
      <set comment="kpoint 7">
       <r>   -6.1991    1.0000 </r>
       <r>    5.6067    1.0000 </r>
       <r>    5.6206    1.0000 </r>
       <r>    5.6206    1.0000 </r>
       <r>    8.1851    0.0000 </r>
       <r>    8.1851    0.0000 </r>
       <r>    8.1862    0.0000 </r>
       <r>    8.7487    0.0000 </r>
      </set>
      <set comment="kpoint 8">
       <r>   -6.1987    1.0000 </r>
       <r>    5.6102    1.0000 </r>
       <r>    5.6154    1.0000 </r>
       <r>    5.6154    1.0000 </r>
       <r>    8.1775    0.0000 </r>
       <r>    8.1914    0.0000 </r>
       <r>    8.1914    0.0000 </r>
       <r>    8.7517    0.0000 </r>
      </set>
      <set comment="kpoint 9">
       <r>   -6.1987    1.0000 </r>
       <r>    5.6102    1.0000 </r>
       <r>    5.6154    1.0000 </r>
       <r>    5.6154    1.0000 </r>
       <r>    8.1775    0.0000 </r>
       <r>    8.1914    0.0000 </r>
       <r>    8.1914    0.0000 </r>
       <r>    8.7517    0.0000 </r>
      </set>
      <set comment="kpoint 10">
       <r>   -6.1969    1.0000 </r>
       <r>    5.5846    1.0000 </r>
       <r>    5.6080    1.0000 </r>
       <r>    5.6213    1.0000 </r>
       <r>    8.1853    0.0000 </r>
       <r>    8.1888    0.0000 </r>
       <r>    8.2000    0.0000 </r>
       <r>    8.7646    0.0000 </r>
      </set>
      <set comment="kpoint 11">
       <r>   -6.1969    1.0000 </r>
       <r>    5.5846    1.0000 </r>
       <r>    5.6080    1.0000 </r>
       <r>    5.6213    1.0000 </r>
       <r>    8.1853    0.0000 </r>
       <r>    8.1888    0.0000 </r>
       <r>    8.2000    0.0000 </r>
       <r>    8.7646    0.0000 </r>
      </set>
      <set comment="kpoint 12">
       <r>   -6.1987    1.0000 </r>
       <r>    5.6102    1.0000 </r>
       <r>    5.6154    1.0000 </r>
       <r>    5.6154    1.0000 </r>
       <r>    8.1775    0.0000 </r>
       <r>    8.1914    0.0000 </r>
       <r>    8.1914    0.0000 </r>
       <r>    8.7517    0.0000 </r>
      </set>
      <set comment="kpoint 13">
       <r>   -6.1987    1.0000 </r>
       <r>    5.6102    1.0000 </r>
       <r>    5.6154    1.0000 </r>
       <r>    5.6154    1.0000 </r>
       <r>    8.1775    0.0000 </r>
       <r>    8.1914    0.0000 </r>
       <r>    8.1914    0.0000 </r>
       <r>    8.7517    0.0000 </r>
      </set>
      <set comment="kpoint 14">
       <r>   -6.1969    1.0000 </r>
       <r>    5.5846    1.0000 </r>
       <r>    5.6080    1.0000 </r>
       <r>    5.6213    1.0000 </r>
       <r>    8.1853    0.0000 </r>
       <r>    8.1888    0.0000 </r>
       <r>    8.2000    0.0000 </r>
       <r>    8.7646    0.0000 </r>
      </set>
      <set comment="kpoint 15">
       <r>   -6.1969    1.0000 </r>
       <r>    5.5846    1.0000 </r>
       <r>    5.6080    1.0000 </r>
       <r>    5.6213    1.0000 </r>
       <r>    8.1853    0.0000 </r>
       <r>    8.1888    0.0000 </r>
       <r>    8.2000    0.0000 </r>
       <r>    8.7646    0.0000 </r>
      </set>
      <set comment="kpoint 16">
       <r>   -6.1987    1.0000 </r>
       <r>    5.6102    1.0000 </r>
       <r>    5.6154    1.0000 </r>
       <r>    5.6154    1.0000 </r>
       <r>    8.1775    0.0000 </r>
       <r>    8.1914    0.0000 </r>
       <r>    8.1914    0.0000 </r>
       <r>    8.7517    0.0000 </r>
      </set>
      <set comment="kpoint 17">
       <r>   -6.1987    1.0000 </r>
       <r>    5.6102    1.0000 </r>
       <r>    5.6154    1.0000 </r>
       <r>    5.6154    1.0000 </r>
       <r>    8.1775    0.0000 </r>
       <r>    8.1914    0.0000 </r>
       <r>    8.1914    0.0000 </r>
       <r>    8.7517    0.0000 </r>
      </set>
      <set comment="kpoint 18">
       <r>   -6.1969    1.0000 </r>
       <r>    5.5846    1.0000 </r>
       <r>    5.6080    1.0000 </r>
       <r>    5.6213    1.0000 </r>
       <r>    8.1853    0.0000 </r>
       <r>    8.1888    0.0000 </r>
       <r>    8.2000    0.0000 </r>
       <r>    8.7646    0.0000 </r>
      </set>
      <set comment="kpoint 19">
       <r>   -6.1969    1.0000 </r>
       <r>    5.5846    1.0000 </r>
       <r>    5.6080    1.0000 </r>
       <r>    5.6213    1.0000 </r>
       <r>    8.1853    0.0000 </r>
       <r>    8.1888    0.0000 </r>
       <r>    8.2000    0.0000 </r>
       <r>    8.7646    0.0000 </r>
      </set>
     </set>
    </set>
   </array>
  </eigenvalues>
  <separator name="orbital magnetization" >
   <v name="MAGDIPOLOUT">      0.00000000      0.00000000      0.00000000</v>
  </separator>
  <dos>
   <i name="efermi">      5.68557523 </i>
   <total>
    <array>
     <dimension dim="1">gridpoints</dimension>
     <dimension dim="2">spin</dimension>
     <field>energy</field>
     <field>total</field>
     <field>integrated</field>
     <set>
      <set comment="spin 1">
       <r>    -6.9486     0.0000     0.0000 </r>
       <r>    -6.8937     0.0000     0.0000 </r>
       <r>    -6.8389     0.0000     0.0000 </r>
       <r>    -6.7840     0.0000     0.0000 </r>
       <r>    -6.7291     0.0000     0.0000 </r>
       <r>    -6.6743     0.0000     0.0000 </r>
       <r>    -6.6194     0.0000     0.0000 </r>
       <r>    -6.5645     0.0000     0.0000 </r>
       <r>    -6.5096     0.0000     0.0000 </r>
       <r>    -6.4548     0.0000     0.0000 </r>
       <r>    -6.3999     0.0000     0.0000 </r>
       <r>    -6.3450     0.0000     0.0000 </r>
       <r>    -6.2902     0.0000     0.0000 </r>
       <r>    -6.2353     0.0000     0.0000 </r>
       <r>    -6.1804    36.2276     1.9879 </r>
       <r>    -6.1255     0.2211     2.0000 </r>
       <r>    -6.0707     0.0000     2.0000 </r>
       <r>    -6.0158     0.0000     2.0000 </r>
       <r>    -5.9609     0.0000     2.0000 </r>
       <r>    -5.9061     0.0000     2.0000 </r>
       <r>    -5.8512     0.0000     2.0000 </r>
       <r>    -5.7963     0.0000     2.0000 </r>
       <r>    -5.7414     0.0000     2.0000 </r>
       <r>    -5.6866     0.0000     2.0000 </r>
       <r>    -5.6317     0.0000     2.0000 </r>
       <r>    -5.5768     0.0000     2.0000 </r>
       <r>    -5.5220     0.0000     2.0000 </r>
       <r>    -5.4671     0.0000     2.0000 </r>
       <r>    -5.4122     0.0000     2.0000 </r>
       <r>    -5.3573     0.0000     2.0000 </r>
       <r>    -5.3025     0.0000     2.0000 </r>
       <r>    -5.2476     0.0000     2.0000 </r>
       <r>    -5.1927     0.0000     2.0000 </r>
       <r>    -5.1379     0.0000     2.0000 </r>
       <r>    -5.0830     0.0000     2.0000 </r>
       <r>    -5.0281     0.0000     2.0000 </r>
       <r>    -4.9732     0.0000     2.0000 </r>
       <r>    -4.9184     0.0000     2.0000 </r>
       <r>    -4.8635     0.0000     2.0000 </r>
       <r>    -4.8086     0.0000     2.0000 </r>
       <r>    -4.7538     0.0000     2.0000 </r>
       <r>    -4.6989     0.0000     2.0000 </r>
       <r>    -4.6440     0.0000     2.0000 </r>
       <r>    -4.5891     0.0000     2.0000 </r>
       <r>    -4.5343     0.0000     2.0000 </r>
       <r>    -4.4794     0.0000     2.0000 </r>
       <r>    -4.4245     0.0000     2.0000 </r>
       <r>    -4.3697     0.0000     2.0000 </r>
       <r>    -4.3148     0.0000     2.0000 </r>
       <r>    -4.2599     0.0000     2.0000 </r>
       <r>    -4.2050     0.0000     2.0000 </r>
       <r>    -4.1502     0.0000     2.0000 </r>
       <r>    -4.0953     0.0000     2.0000 </r>
       <r>    -4.0404     0.0000     2.0000 </r>
       <r>    -3.9856     0.0000     2.0000 </r>
       <r>    -3.9307     0.0000     2.0000 </r>
       <r>    -3.8758     0.0000     2.0000 </r>
       <r>    -3.8209     0.0000     2.0000 </r>
       <r>    -3.7661     0.0000     2.0000 </r>
       <r>    -3.7112     0.0000     2.0000 </r>
       <r>    -3.6563     0.0000     2.0000 </r>
       <r>    -3.6015     0.0000     2.0000 </r>
       <r>    -3.5466     0.0000     2.0000 </r>
       <r>    -3.4917     0.0000     2.0000 </r>
       <r>    -3.4368     0.0000     2.0000 </r>
       <r>    -3.3820     0.0000     2.0000 </r>
       <r>    -3.3271     0.0000     2.0000 </r>
       <r>    -3.2722     0.0000     2.0000 </r>
       <r>    -3.2173     0.0000     2.0000 </r>
       <r>    -3.1625     0.0000     2.0000 </r>
       <r>    -3.1076     0.0000     2.0000 </r>
       <r>    -3.0527     0.0000     2.0000 </r>
       <r>    -2.9979     0.0000     2.0000 </r>
       <r>    -2.9430     0.0000     2.0000 </r>
       <r>    -2.8881     0.0000     2.0000 </r>
       <r>    -2.8332     0.0000     2.0000 </r>
       <r>    -2.7784     0.0000     2.0000 </r>
       <r>    -2.7235     0.0000     2.0000 </r>
       <r>    -2.6686     0.0000     2.0000 </r>
       <r>    -2.6138     0.0000     2.0000 </r>
       <r>    -2.5589     0.0000     2.0000 </r>
       <r>    -2.5040     0.0000     2.0000 </r>
       <r>    -2.4491     0.0000     2.0000 </r>
       <r>    -2.3943     0.0000     2.0000 </r>
       <r>    -2.3394     0.0000     2.0000 </r>
       <r>    -2.2845     0.0000     2.0000 </r>
       <r>    -2.2297     0.0000     2.0000 </r>
       <r>    -2.1748     0.0000     2.0000 </r>
       <r>    -2.1199     0.0000     2.0000 </r>
       <r>    -2.0650     0.0000     2.0000 </r>
       <r>    -2.0102     0.0000     2.0000 </r>
       <r>    -1.9553     0.0000     2.0000 </r>
       <r>    -1.9004     0.0000     2.0000 </r>
       <r>    -1.8456     0.0000     2.0000 </r>
       <r>    -1.7907     0.0000     2.0000 </r>
       <r>    -1.7358     0.0000     2.0000 </r>
       <r>    -1.6809     0.0000     2.0000 </r>
       <r>    -1.6261     0.0000     2.0000 </r>
       <r>    -1.5712     0.0000     2.0000 </r>
       <r>    -1.5163     0.0000     2.0000 </r>
       <r>    -1.4615     0.0000     2.0000 </r>
       <r>    -1.4066     0.0000     2.0000 </r>
       <r>    -1.3517     0.0000     2.0000 </r>
       <r>    -1.2968     0.0000     2.0000 </r>
       <r>    -1.2420     0.0000     2.0000 </r>
       <r>    -1.1871     0.0000     2.0000 </r>
       <r>    -1.1322     0.0000     2.0000 </r>
       <r>    -1.0774     0.0000     2.0000 </r>
       <r>    -1.0225     0.0000     2.0000 </r>
       <r>    -0.9676     0.0000     2.0000 </r>
       <r>    -0.9127     0.0000     2.0000 </r>
       <r>    -0.8579     0.0000     2.0000 </r>
       <r>    -0.8030     0.0000     2.0000 </r>
       <r>    -0.7481     0.0000     2.0000 </r>
       <r>    -0.6933     0.0000     2.0000 </r>
       <r>    -0.6384     0.0000     2.0000 </r>
       <r>    -0.5835     0.0000     2.0000 </r>
       <r>    -0.5286     0.0000     2.0000 </r>
       <r>    -0.4738     0.0000     2.0000 </r>
       <r>    -0.4189     0.0000     2.0000 </r>
       <r>    -0.3640     0.0000     2.0000 </r>
       <r>    -0.3092     0.0000     2.0000 </r>
       <r>    -0.2543     0.0000     2.0000 </r>
       <r>    -0.1994     0.0000     2.0000 </r>
       <r>    -0.1445     0.0000     2.0000 </r>
       <r>    -0.0897     0.0000     2.0000 </r>
       <r>    -0.0348     0.0000     2.0000 </r>
       <r>     0.0201     0.0000     2.0000 </r>
       <r>     0.0749     0.0000     2.0000 </r>
       <r>     0.1298     0.0000     2.0000 </r>
       <r>     0.1847     0.0000     2.0000 </r>
       <r>     0.2396     0.0000     2.0000 </r>
       <r>     0.2944     0.0000     2.0000 </r>
       <r>     0.3493     0.0000     2.0000 </r>
       <r>     0.4042     0.0000     2.0000 </r>
       <r>     0.4591     0.0000     2.0000 </r>
       <r>     0.5139     0.0000     2.0000 </r>
       <r>     0.5688     0.0000     2.0000 </r>
       <r>     0.6237     0.0000     2.0000 </r>
       <r>     0.6785     0.0000     2.0000 </r>
       <r>     0.7334     0.0000     2.0000 </r>
       <r>     0.7883     0.0000     2.0000 </r>
       <r>     0.8432     0.0000     2.0000 </r>
       <r>     0.8980     0.0000     2.0000 </r>
       <r>     0.9529     0.0000     2.0000 </r>
       <r>     1.0078     0.0000     2.0000 </r>
       <r>     1.0626     0.0000     2.0000 </r>
       <r>     1.1175     0.0000     2.0000 </r>
       <r>     1.1724     0.0000     2.0000 </r>
       <r>     1.2273     0.0000     2.0000 </r>
       <r>     1.2821     0.0000     2.0000 </r>
       <r>     1.3370     0.0000     2.0000 </r>
       <r>     1.3919     0.0000     2.0000 </r>
       <r>     1.4467     0.0000     2.0000 </r>
       <r>     1.5016     0.0000     2.0000 </r>
       <r>     1.5565     0.0000     2.0000 </r>
       <r>     1.6114     0.0000     2.0000 </r>
       <r>     1.6662     0.0000     2.0000 </r>
       <r>     1.7211     0.0000     2.0000 </r>
       <r>     1.7760     0.0000     2.0000 </r>
       <r>     1.8308     0.0000     2.0000 </r>
       <r>     1.8857     0.0000     2.0000 </r>
       <r>     1.9406     0.0000     2.0000 </r>
       <r>     1.9955     0.0000     2.0000 </r>
       <r>     2.0503     0.0000     2.0000 </r>
       <r>     2.1052     0.0000     2.0000 </r>
       <r>     2.1601     0.0000     2.0000 </r>
       <r>     2.2149     0.0000     2.0000 </r>
       <r>     2.2698     0.0000     2.0000 </r>
       <r>     2.3247     0.0000     2.0000 </r>
       <r>     2.3796     0.0000     2.0000 </r>
       <r>     2.4344     0.0000     2.0000 </r>
       <r>     2.4893     0.0000     2.0000 </r>
       <r>     2.5442     0.0000     2.0000 </r>
       <r>     2.5990     0.0000     2.0000 </r>
       <r>     2.6539     0.0000     2.0000 </r>
       <r>     2.7088     0.0000     2.0000 </r>
       <r>     2.7637     0.0000     2.0000 </r>
       <r>     2.8185     0.0000     2.0000 </r>
       <r>     2.8734     0.0000     2.0000 </r>
       <r>     2.9283     0.0000     2.0000 </r>
       <r>     2.9831     0.0000     2.0000 </r>
       <r>     3.0380     0.0000     2.0000 </r>
       <r>     3.0929     0.0000     2.0000 </r>
       <r>     3.1478     0.0000     2.0000 </r>
       <r>     3.2026     0.0000     2.0000 </r>
       <r>     3.2575     0.0000     2.0000 </r>
       <r>     3.3124     0.0000     2.0000 </r>
       <r>     3.3672     0.0000     2.0000 </r>
       <r>     3.4221     0.0000     2.0000 </r>
       <r>     3.4770     0.0000     2.0000 </r>
       <r>     3.5319     0.0000     2.0000 </r>
       <r>     3.5867     0.0000     2.0000 </r>
       <r>     3.6416     0.0000     2.0000 </r>
       <r>     3.6965     0.0000     2.0000 </r>
       <r>     3.7513     0.0000     2.0000 </r>
       <r>     3.8062     0.0000     2.0000 </r>
       <r>     3.8611     0.0000     2.0000 </r>
       <r>     3.9160     0.0000     2.0000 </r>
       <r>     3.9708     0.0000     2.0000 </r>
       <r>     4.0257     0.0000     2.0000 </r>
       <r>     4.0806     0.0000     2.0000 </r>
       <r>     4.1355     0.0000     2.0000 </r>
       <r>     4.1903     0.0000     2.0000 </r>
       <r>     4.2452     0.0000     2.0000 </r>
       <r>     4.3001     0.0000     2.0000 </r>
       <r>     4.3549     0.0000     2.0000 </r>
       <r>     4.4098     0.0000     2.0000 </r>
       <r>     4.4647     0.0000     2.0000 </r>
       <r>     4.5196     0.0000     2.0000 </r>
       <r>     4.5744     0.0000     2.0000 </r>
       <r>     4.6293     0.0000     2.0000 </r>
       <r>     4.6842     0.0000     2.0000 </r>
       <r>     4.7390     0.0000     2.0000 </r>
       <r>     4.7939     0.0000     2.0000 </r>
       <r>     4.8488     0.0000     2.0000 </r>
       <r>     4.9037     0.0000     2.0000 </r>
       <r>     4.9585     0.0000     2.0000 </r>
       <r>     5.0134     0.0000     2.0000 </r>
       <r>     5.0683     0.0000     2.0000 </r>
       <r>     5.1231     0.0000     2.0000 </r>
       <r>     5.1780     0.0000     2.0000 </r>
       <r>     5.2329     0.0000     2.0000 </r>
       <r>     5.2878     0.0000     2.0000 </r>
       <r>     5.3426     0.0000     2.0000 </r>
       <r>     5.3975     0.0000     2.0000 </r>
       <r>     5.4524     0.0000     2.0000 </r>
       <r>     5.5072     0.0000     2.0000 </r>
       <r>     5.5621     0.0085     2.0005 </r>
       <r>     5.6170    66.8055     5.6662 </r>
       <r>     5.6719    42.5320     8.0000 </r>
       <r>     5.7267     0.0000     8.0000 </r>
       <r>     5.7816     0.0000     8.0000 </r>
       <r>     5.8365     0.0000     8.0000 </r>
       <r>     5.8913     0.0000     8.0000 </r>
       <r>     5.9462     0.0000     8.0000 </r>
       <r>     6.0011     0.0000     8.0000 </r>
       <r>     6.0560     0.0000     8.0000 </r>
       <r>     6.1108     0.0000     8.0000 </r>
       <r>     6.1657     0.0000     8.0000 </r>
       <r>     6.2206     0.0000     8.0000 </r>
       <r>     6.2754     0.0000     8.0000 </r>
       <r>     6.3303     0.0000     8.0000 </r>
       <r>     6.3852     0.0000     8.0000 </r>
       <r>     6.4401     0.0000     8.0000 </r>
       <r>     6.4949     0.0000     8.0000 </r>
       <r>     6.5498     0.0000     8.0000 </r>
       <r>     6.6047     0.0000     8.0000 </r>
       <r>     6.6595     0.0000     8.0000 </r>
       <r>     6.7144     0.0000     8.0000 </r>
       <r>     6.7693     0.0000     8.0000 </r>
       <r>     6.8242     0.0000     8.0000 </r>
       <r>     6.8790     0.0000     8.0000 </r>
       <r>     6.9339     0.0000     8.0000 </r>
       <r>     6.9888     0.0000     8.0000 </r>
       <r>     7.0436     0.0000     8.0000 </r>
       <r>     7.0985     0.0000     8.0000 </r>
       <r>     7.1534     0.0000     8.0000 </r>
       <r>     7.2083     0.0000     8.0000 </r>
       <r>     7.2631     0.0000     8.0000 </r>
       <r>     7.3180     0.0000     8.0000 </r>
       <r>     7.3729     0.0000     8.0000 </r>
       <r>     7.4277     0.0000     8.0000 </r>
       <r>     7.4826     0.0000     8.0000 </r>
       <r>     7.5375     0.0000     8.0000 </r>
       <r>     7.5924     0.0000     8.0000 </r>
       <r>     7.6472     0.0000     8.0000 </r>
       <r>     7.7021     0.0000     8.0000 </r>
       <r>     7.7570     0.0000     8.0000 </r>
       <r>     7.8119     0.0000     8.0000 </r>
       <r>     7.8667     0.0000     8.0000 </r>
       <r>     7.9216     0.0000     8.0000 </r>
       <r>     7.9765     0.0000     8.0000 </r>
       <r>     8.0313     0.0000     8.0000 </r>
       <r>     8.0862     0.0000     8.0000 </r>
       <r>     8.1411     0.0000     8.0000 </r>
       <r>     8.1960    89.9709    12.9369 </r>
       <r>     8.2508    19.3752    14.0000 </r>
       <r>     8.3057     0.0000    14.0000 </r>
       <r>     8.3606     0.0000    14.0000 </r>
       <r>     8.4154     0.0000    14.0000 </r>
       <r>     8.4703     0.0000    14.0000 </r>
       <r>     8.5252     0.0000    14.0000 </r>
       <r>     8.5801     0.0000    14.0000 </r>
       <r>     8.6349     0.0000    14.0000 </r>
       <r>     8.6898     0.0000    14.0000 </r>
       <r>     8.7447     6.6338    14.3640 </r>
       <r>     8.7995    29.8148    16.0000 </r>
       <r>     8.8544     0.0000    16.0000 </r>
       <r>     8.9093     0.0000    16.0000 </r>
       <r>     8.9642     0.0000    16.0000 </r>
       <r>     9.0190     0.0000    16.0000 </r>
       <r>     9.0739     0.0000    16.0000 </r>
       <r>     9.1288     0.0000    16.0000 </r>
       <r>     9.1836     0.0000    16.0000 </r>
       <r>     9.2385     0.0000    16.0000 </r>
       <r>     9.2934     0.0000    16.0000 </r>
       <r>     9.3483     0.0000    16.0000 </r>
       <r>     9.4031     0.0000    16.0000 </r>
       <r>     9.4580     0.0000    16.0000 </r>
       <r>     9.5129     0.0000    16.0000 </r>
      </set>
     </set>
    </array>
   </total>
  </dos>
 </calculation>
 <structure name="finalpos" >
  <crystal>
   <varray name="basis" >
    <v>       0.00000000       2.73482640       2.73482640 </v>
    <v>       2.73482640       0.00000000       2.73482640 </v>
    <v>       2.73482640       2.73482640       0.00000000 </v>
   </varray>
   <i name="volume">     40.90903976 </i>
   <varray name="rec_basis" >
    <v>      -0.18282696       0.18282696       0.18282696 </v>
    <v>       0.18282696      -0.18282696       0.18282696 </v>
    <v>       0.18282696       0.18282696      -0.18282696 </v>
   </varray>
  </crystal>
  <varray name="positions" >
   <v>       0.00000000       0.00000000       0.00000000 </v>
   <v>       0.25000000       0.25000000       0.25000000 </v>
  </varray>
 </structure>
</modeling>
