 vasp.5.4.4.18Apr17-6-g9f103f2a35 (build Sep 03 2019 17:22:03) complex          
  
 executed on             LinuxIFC date 2024.12.15  14:43:04
 serial version


--------------------------------------------------------------------------------------------------------


 INCAR:
 POTCAR:    PAW_PBE Si 05Jan2001                  
 POTCAR:    PAW_PBE Si 05Jan2001                  
   SHA256 =  79d9987ad8750f624c4d6acb2a16d13abf6a777132adc04dc6c8399be72b42bb Si
   COPYR  = (c) Copyright 05Jan2001 Georg Kresse                                
   COPYR  = This file is part of the software VASP. Any use, copying, and all ot
   COPYR  = If you do not have a valid VASP license, you may not use, copy or di
   VRHFIN =Si: s2p2                                                             
   LEXCH  = PE                                                                  
   EATOM  =   103.0669 eV,    7.5752 Ry                                         
                                                                                
   TITEL  = PAW_PBE Si 05Jan2001                                                
   LULTRA =        F    use ultrasoft PP ?                                      
   IUNSCR =        1    unscreen: 0-lin 1-nonlin 2-no                           
   RPACOR =    1.500    partial core radius                                     
   POMASS =   28.085; ZVAL   =    4.000    mass and valenz                      
   RCORE  =    1.900    outmost cutoff radius                                   
   RWIGS  =    2.480; RWIGS  =    1.312    wigner-seitz radius (au A)           
   ENMAX  =  245.345; ENMIN  =  184.009 eV                                      
   ICORE  =        2    local potential                                         
   LCOR   =        T    correct aug charges                                     
   LPAW   =        T    paw PP                                                  
   EAUG   =  322.069                                                            
   DEXC   =    0.000                                                            
   RMAX   =    1.950    core radius for proj-oper                               
   RAUG   =    1.300    factor for augmentation sphere                          
   RDEP   =    1.993    radius for radial grids                                 
   RDEPT  =    1.837    core radius for aug-charge                              
                                                                                
   Atomic configuration                                                         
    6 entries                                                                   
     n  l   j            E        occ.                                          
     1  0  0.50     -1785.8828   2.0000                                         
     2  0  0.50      -139.4969   2.0000                                         
     2  1  1.50       -95.5546   6.0000                                         
     3  0  0.50       -10.8127   2.0000                                         
     3  1  0.50        -4.0811   2.0000                                         
     3  2  1.50        -4.0817   0.0000                                         
   Description                                                                  
     l       E           TYP  RCUT    TYP  RCUT                                 
     0    -10.8127223     23  1.900                                             
     0     -7.6451159     23  1.900                                             
     1     -4.0811372     23  1.900                                             
     1      2.4879257     23  1.900                                             
     2     -4.0817478      7  1.900                                             
  local pseudopotential read in
  partial core-charges read in
  partial kinetic energy density read in
  atomic valenz-charges read in
  non local Contribution for L=           0  read in
    real space projection operators read in
  non local Contribution for L=           0  read in
    real space projection operators read in
  non local Contribution for L=           1  read in
    real space projection operators read in
  non local Contribution for L=           1  read in
    real space projection operators read in
    PAW grid and wavefunctions read in
 
   number of l-projection  operators is LMAX  =           4
   number of lm-projection operators is LMMAX =           8
 
  PAW_PBE Si 05Jan2001                  :
 energy of atom  1       EATOM= -103.0669
 kinetic energy error for atom=    0.0003 (will be added to EATOM!!)
 
 
 POSCAR: i2a=[Si] ; Si                           
  positions in direct lattice
  No initial velocities read in
 exchange correlation table for  LEXCH =        8
   RHO(1)=    0.500       N(1)  =     2000
   RHO(2)=  100.500       N(2)  =     4000
 


--------------------------------------------------------------------------------------------------------


 ion  position               nearest neighbor table
   1  0.875  0.875  0.875-   2 2.36   2 2.36   2 2.36   2 2.36
   2  0.125  0.125  0.125-   1 2.36   1 2.36   1 2.36   1 2.36
 
  LATTYP: Found a face centered cubic cell.
 ALAT       =     5.4437011529
  
  Lattice vectors:
  
 A1 = (   3.3335730000,   0.0000000000,   1.9246390000)
 A2 = (   1.1111910000,   3.1429240000,   1.9246390000)
 A3 = (   0.0000000000,   0.0000000000,   3.8492780000)


Analysis of symmetry for initial positions (statically):
=====================================================================
 Subroutine PRICEL returns:
 Original cell was already a primitive cell.
 

 Routine SETGRP: Setting up the symmetry group for a 
 face centered cubic supercell.


 Subroutine GETGRP returns: Found 48 space group operations
 (whereof 12 operations were pure point group operations)
 out of a pool of 48 trial point group operations.


The static configuration has the point symmetry D_3d.
 The point group associated with its full space group is O_h .


Analysis of symmetry for dynamics (positions and initial velocities):
=====================================================================
 Subroutine PRICEL returns:
 Original cell was already a primitive cell.
 

 Routine SETGRP: Setting up the symmetry group for a 
 face centered cubic supercell.


 Subroutine GETGRP returns: Found 48 space group operations
 (whereof 12 operations were pure point group operations)
 out of a pool of 48 trial point group operations.


The dynamic configuration has the point symmetry D_3d.
 The point group associated with its full space group is O_h .


 Subroutine INISYM returns: Found 48 space group operations
 (whereof 12 operations are pure point group operations),
 and found     1 'primitive' translations

 
 
 KPOINTS: Explicit k-point list                   
  k-points in reciprocal lattice
Space group operators:
 irot       det(A)        alpha          n_x          n_y          n_z        tau_x        tau_y        tau_z
    1     1.000000     0.000000     1.000000     0.000000     0.000000     0.000000     0.000000     0.000000
    2    -1.000000     0.000000     1.000000     0.000000     0.000000     0.000000     0.000000     0.000000
    3     1.000000   120.000000    -0.471404    -0.333333    -0.816497     0.000000     0.000000     0.000000
    4    -1.000000   120.000000    -0.471404    -0.333333    -0.816497     0.000000     0.000000     0.000000
    5     1.000000   120.000000     0.471405     0.333333     0.816496     0.000000     0.000000     0.000000
    6    -1.000000   120.000000     0.471405     0.333333     0.816496     0.000000     0.000000     0.000000
    7     1.000000   180.000000     0.288675     0.816496    -0.500000     0.000000     0.000000     0.000000
    8    -1.000000   180.000000     0.288675     0.816496    -0.500000     0.000000     0.000000     0.000000
    9     1.000000   180.000000     0.577350    -0.816496     0.000000     0.000000     0.000000     0.000000
   10    -1.000000   180.000000     0.577350    -0.816496     0.000000     0.000000     0.000000     0.000000
   11     1.000000   180.000000     0.866025    -0.000000    -0.500000     0.000000     0.000000     0.000000
   12    -1.000000   180.000000     0.866025    -0.000000    -0.500000     0.000000     0.000000     0.000000
   13     1.000000    90.000000    -0.816497    -0.577350    -0.000000     0.500000     0.000000     0.000000
   14    -1.000000    90.000000    -0.816497    -0.577350    -0.000000     0.500000     0.000000     0.000000
   15     1.000000   180.000000     0.866025    -0.000000     0.500000     0.500000     0.000000     0.000000
   16    -1.000000   180.000000     0.866025    -0.000000     0.500000     0.500000     0.000000     0.000000
   17     1.000000    90.000000     0.408248    -0.577350     0.707107     0.500000     0.000000     0.000000
   18    -1.000000    90.000000     0.408248    -0.577350     0.707107     0.500000     0.000000     0.000000
   19     1.000000   180.000000     0.816497     0.577350     0.000000     0.000000     0.000000     0.500000
   20    -1.000000   180.000000     0.816497     0.577350     0.000000     0.000000     0.000000     0.500000
   21     1.000000   120.000000     0.942809    -0.333333     0.000000     0.000000     0.000000     0.500000
   22    -1.000000   120.000000     0.942809    -0.333333     0.000000     0.000000     0.000000     0.500000
   23     1.000000   120.000000     0.000000    -1.000000     0.000000     0.000000     0.000000     0.500000
   24    -1.000000   120.000000     0.000000    -1.000000     0.000000     0.000000     0.000000     0.500000
   25     1.000000    90.000000     0.816497     0.577350    -0.000000     0.000000     0.500000     0.000000
   26    -1.000000    90.000000     0.816497     0.577350    -0.000000     0.000000     0.500000     0.000000
   27     1.000000    90.000000     0.408249    -0.577350    -0.707107     0.000000     0.500000     0.000000
   28    -1.000000    90.000000     0.408249    -0.577350    -0.707107     0.000000     0.500000     0.000000
   29     1.000000   179.999999     0.288675     0.816496     0.500000     0.000000     0.500000     0.000000
   30    -1.000000   179.999999     0.288675     0.816496     0.500000     0.000000     0.500000     0.000000
   31     1.000000   120.000000     0.000000     1.000000     0.000000     0.500000     0.000000     0.000000
   32    -1.000000   120.000000     0.000000     1.000000     0.000000     0.500000     0.000000     0.000000
   33     1.000000   120.000000     0.471404     0.333333    -0.816497     0.500000     0.000000     0.000000
   34    -1.000000   120.000000     0.471404     0.333333    -0.816497     0.500000     0.000000     0.000000
   35     1.000000   180.000000    -0.408248     0.577350     0.707107     0.500000     0.000000     0.000000
   36    -1.000000   180.000000    -0.408248     0.577350     0.707107     0.500000     0.000000     0.000000
   37     1.000000    90.000000    -0.408249     0.577350    -0.707107     0.000000     0.000000     0.500000
   38    -1.000000    90.000000    -0.408249     0.577350    -0.707107     0.000000     0.000000     0.500000
   39     1.000000   180.000000    -0.000000     0.000000     1.000000     0.000000     0.000000     0.500000
   40    -1.000000   180.000000    -0.000000     0.000000     1.000000     0.000000     0.000000     0.500000
   41     1.000000    90.000000    -0.408248     0.577350     0.707107     0.000000     0.000000     0.500000
   42    -1.000000    90.000000    -0.408248     0.577350     0.707107     0.000000     0.000000     0.500000
   43     1.000000   120.000000    -0.942809     0.333333     0.000000     0.000000     0.500000     0.000000
   44    -1.000000   120.000000    -0.942809     0.333333     0.000000     0.000000     0.500000     0.000000
   45     1.000000   180.000000    -0.408248     0.577350    -0.707107     0.000000     0.500000     0.000000
   46    -1.000000   180.000000    -0.408248     0.577350    -0.707107     0.000000     0.500000     0.000000
   47     1.000000   120.000000    -0.471405    -0.333333     0.816496     0.000000     0.500000     0.000000
   48    -1.000000   120.000000    -0.471405    -0.333333     0.816496     0.000000     0.500000     0.000000


--------------------------------------------------------------------------------------------------------




 Dimension of arrays:
   k-points           NKPTS =     19   k-points in BZ     NKDIM =     19   number of bands    NBANDS=     12
   number of dos      NEDOS =    301   number of ions     NIONS =      2
   non local maximal  LDIM  =      4   non local SUM 2l+1 LMDIM =      8
   total plane-waves  NPLWV =  13824
   max r-space proj   IRMAX =      1   max aug-charges    IRDMAX=  11659
   dimension x,y,z NGX =    24 NGY =   24 NGZ =   24
   dimension x,y,z NGXF=    48 NGYF=   48 NGZF=   48
   support grid    NGXF=    48 NGYF=   48 NGZF=   48
   ions per type =               2
   NGX,Y,Z   is equivalent  to a cutoff of  10.37, 10.37, 10.37 a.u.
   NGXF,Y,Z  is equivalent  to a cutoff of  20.73, 20.73, 20.73 a.u.

 SYSTEM =  auto Fully inherited from the final st  
 POSCAR =  i2a=[Si] ; Si                           

 Startparameter for this run:
   NWRITE =      2    write-flag & timer
   PREC   = normal    normal or accurate (medium, high low for compatibility)
   ISTART =      0    job   : 0-new  1-cont  2-samecut
   ICHARG =      2    charge: 1-file 2-atom 10-const
   ISPIN  =      1    spin polarized calculation?
   LNONCOLLINEAR =      F non collinear calculations
   LSORBIT =      F    spin-orbit coupling
   INIWAV =      1    electr: 0-lowe 1-rand  2-diag
   LASPH  =      F    aspherical Exc in radial PAW
   METAGGA=      F    non-selfconsistent MetaGGA calc.

 Electronic Relaxation 1
   ENCUT  =  600.0 eV  44.10 Ry    6.64 a.u.   7.69  7.69  7.69*2*pi/ulx,y,z
   ENINI  =  600.0     initial cutoff
   ENAUG  =  700.0 eV  augmentation charge cutoff
   NELM   =     60;   NELMIN=  2; NELMDL= -5     # of ELM steps 
   EDIFF  = 0.1E-04   stopping-criterion for ELM
   LREAL  =      F    real-space projection
   NLSPLINE    = F    spline interpolate recip. space projectors
   LCOMPAT=      F    compatible to vasp.4.4
   GGA_COMPAT  = T    GGA compatible to vasp.4.4-vasp.4.6
   LMAXPAW     = -100 max onsite density
   LMAXMIX     =    2 max onsite mixed and CHGCAR
   VOSKOWN=      0    Vosko Wilk Nusair interpolation
   ROPT   =    0.00000
 Ionic relaxation
   EDIFFG = 0.1E-03   stopping-criterion for IOM
   NSW    =      0    number of steps for IOM
   NBLOCK =      1;   KBLOCK =      1    inner block; outer block 
   IBRION =     -1    ionic relax: 0-MD 1-quasi-New 2-CG
   NFREE  =      0    steps in history (QN), initial steepest desc. (CG)
   ISIF   =      2    stress and relaxation
   IWAVPR =      0    prediction:  0-non 1-charg 2-wave 3-comb
   ISYM   =      2    0-nonsym 1-usesym 2-fastsym
   LCORR  =      T    Harris-Foulkes like correction to forces

   POTIM  = 0.5000    time-step for ionic-motion
   TEIN   =    0.0    initial temperature
   TEBEG  =    0.0;   TEEND  =   0.0 temperature during run
   SMASS  =  -3.00    Nose mass-parameter (am)
   estimated Nose-frequenzy (Omega)   =  0.10E-29 period in steps =****** mass=  -0.339E-27a.u.
   SCALEE = 1.0000    scale energy and forces
   NPACO  =    256;   APACO  = 16.0  distance and # of slots for P.C.
   PSTRESS=    0.0 pullay stress

  Mass of Ions in am
   POMASS =  28.09
  Ionic Valenz
   ZVAL   =   4.00
  Atomic Wigner-Seitz radii
   RWIGS  =  -1.00
  virtual crystal weights 
   VCA    =   1.00
   NELECT =       8.0000    total number of electrons
   NUPDOWN=      -1.0000    fix difference up-down

 DOS related values:
   EMIN   =  10.00;   EMAX   =-10.00  energy-range for DOS
   EFERMI =   0.00
   ISMEAR =     0;   SIGMA  =   0.20  broadening in eV -4-tet -1-fermi 0-gaus

 Electronic relaxation 2 (details)
   IALGO  =     38    algorithm
   LDIAG  =      T    sub-space diagonalisation (order eigenvalues)
   LSUBROT=      F    optimize rotation matrix (better conditioning)
   TURBO    =      0    0=normal 1=particle mesh
   IRESTART =      0    0=no restart 2=restart with 2 vectors
   NREBOOT  =      0    no. of reboots
   NMIN     =      0    reboot dimension
   EREF     =   0.00    reference energy to select bands
   IMIX   =      4    mixing-type and parameters
     AMIX     =   0.40;   BMIX     =  1.00
     AMIX_MAG =   1.60;   BMIX_MAG =  1.00
     AMIN     =   0.10
     WC   =   100.;   INIMIX=   1;  MIXPRE=   1;  MAXMIX= -45

 Intra band minimization:
   WEIMIN = 0.0000     energy-eigenvalue tresh-hold
   EBREAK =  0.21E-06  absolut break condition
   DEPER  =   0.30     relativ break condition  

   TIME   =   0.40     timestep for ELM

  volume/ion in A,a.u.               =      20.16       136.08
  Fermi-wavevector in a.u.,A,eV,Ry     =   0.954766  1.804247 12.402783  0.911579
  Thomas-Fermi vector in A             =   2.083543
 
 Write flags
   LWAVE        =      T    write WAVECAR
   LDOWNSAMPLE  =      F    k-point downsampling of WAVECAR
   LCHARG       =      T    write CHGCAR
   LVTOT        =      F    write LOCPOT, total local potential
   LVHAR        =      F    write LOCPOT, Hartree potential only
   LELF         =      F    write electronic localiz. function (ELF)
   LORBIT       =     11    0 simple, 1 ext, 2 COOP (PROOUT), +10 PAW based schemes


 Dipole corrections
   LMONO  =      F    monopole corrections only (constant potential shift)
   LDIPOL =      F    correct potential (dipole corrections)
   IDIPOL =      0    1-x, 2-y, 3-z, 4-all directions 
   EPSILON=  1.0000000 bulk dielectric constant

 Exchange correlation treatment:
   GGA     =    --    GGA type
   LEXCH   =     8    internal setting for exchange type
   VOSKOWN=      0    Vosko Wilk Nusair interpolation
   LHFCALC =     F    Hartree Fock is set to
   LHFONE  =     F    Hartree Fock one center treatment
   AEXX    =    0.0000 exact exchange contribution

 Linear response parameters
   LEPSILON=     F    determine dielectric tensor
   LRPA    =     F    only Hartree local field effects (RPA)
   LNABLA  =     F    use nabla operator in PAW spheres
   LVEL    =     F    velocity operator in full k-point grid
   LINTERFAST=   F  fast interpolation
   KINTER  =     0    interpolate to denser k-point grid
   CSHIFT  =0.1000    complex shift for real part using Kramers Kronig
   OMEGAMAX=  -1.0    maximum frequency
   DEG_THRESHOLD= 0.2000000E-02 threshold for treating states as degnerate
   RTIME   =   -0.100 relaxation time in fs
  (WPLASMAI=    0.000 imaginary part of plasma frequency in eV, 0.658/RTIME)
   DFIELD  = 0.0000000 0.0000000 0.0000000 field for delta impulse in time
 
 Orbital magnetization related:
   ORBITALMAG=     F  switch on orbital magnetization
   LCHIMAG   =     F  perturbation theory with respect to B field
   DQ        =  0.001000  dq finite difference perturbation B field
   LLRAUG    =     F  two centre corrections for induced B field



--------------------------------------------------------------------------------------------------------


 Static calculation
 charge density and potential will be updated during run
 non-spin polarized calculation
 Variant of blocked Davidson
 Davidson routine will perform the subspace rotation
 perform sub-space diagonalisation
    after iterative eigenvector-optimisation
 modified Broyden-mixing scheme, WC =      100.0
 initial mixing is a Kerker type mixing with AMIX =  0.4000 and BMIX =      1.0000
 Hartree-type preconditioning will be used
 using additional bands            8
 reciprocal scheme for non local part
 use partial core corrections
 calculate Harris-corrections to forces 
   (improved forces if not selfconsistent)
 use gradient corrections 
 use of overlap-Matrix (Vanderbilt PP)
 Gauss-broadening in eV      SIGMA  =   0.20


--------------------------------------------------------------------------------------------------------


  energy-cutoff  :      600.00
  volume of cell :       40.33
      direct lattice vectors                 reciprocal lattice vectors
     3.333573000  0.000000000  1.924639000     0.299978432 -0.106058350  0.000000000
     1.111191000  3.142924000  1.924639000     0.000000000  0.318175050  0.000000000
     0.000000000  0.000000000  3.849278000    -0.149989216 -0.106058350  0.259788979

  length of vectors
     3.849278403  3.849279412  3.849278000     0.318175161  0.318175050  0.318175190


 
 k-points in units of 2pi/SCALE and weight: Explicit k-point list                   
   0.00000000  0.00000000  0.00000000       0.053
  -0.00299978  0.00106058  0.00000000       0.053
   0.00299978 -0.00106058  0.00000000       0.053
   0.00000000 -0.00318175  0.00000000       0.053
   0.00000000  0.00318175  0.00000000       0.053
   0.00149989  0.00106058 -0.00259789       0.053
  -0.00149989 -0.00106058  0.00259789       0.053
  -0.00299978 -0.00212117  0.00000000       0.053
   0.00299978  0.00212117  0.00000000       0.053
   0.00299978 -0.00424233  0.00000000       0.053
  -0.00299978  0.00424233  0.00000000       0.053
  -0.00149989  0.00212117 -0.00259789       0.053
   0.00149989 -0.00212117  0.00259789       0.053
   0.00449968 -0.00000000 -0.00259789       0.053
  -0.00449968  0.00000000  0.00259789       0.053
   0.00149989 -0.00212117 -0.00259789       0.053
  -0.00149989  0.00212117  0.00259789       0.053
   0.00149989  0.00424233 -0.00259789       0.053
  -0.00149989 -0.00424233  0.00259789       0.053
 
 k-points in reciprocal lattice and weights: Explicit k-point list                   
   0.00000000  0.00000000  0.00000000       0.053
  -0.01000000  0.00000000  0.00000000       0.053
   0.01000000  0.00000000  0.00000000       0.053
   0.00000000 -0.01000000  0.00000000       0.053
   0.00000000  0.01000000  0.00000000       0.053
   0.00000000  0.00000000 -0.01000000       0.053
   0.00000000  0.00000000  0.01000000       0.053
  -0.01000000 -0.01000000  0.00000000       0.053
   0.01000000  0.01000000  0.00000000       0.053
   0.01000000 -0.01000000  0.00000000       0.053
  -0.01000000  0.01000000  0.00000000       0.053
  -0.01000000  0.00000000 -0.01000000       0.053
   0.01000000  0.00000000  0.01000000       0.053
   0.01000000  0.00000000 -0.01000000       0.053
  -0.01000000  0.00000000  0.01000000       0.053
   0.00000000 -0.01000000 -0.01000000       0.053
   0.00000000  0.01000000  0.01000000       0.053
   0.00000000  0.01000000 -0.01000000       0.053
   0.00000000 -0.01000000  0.01000000       0.053
 
 position of ions in fractional coordinates (direct lattice) 
   0.87500000  0.87500000  0.87500000
   0.12500000  0.12500000  0.12500000
 
 position of ions in cartesian coordinates  (Angst):
   3.88916850  2.75005850  6.73623650
   0.55559550  0.39286550  0.96231950
 


--------------------------------------------------------------------------------------------------------


 k-point  1 :   0.0000 0.0000 0.0000  plane waves:    1363
 k-point  2 :  -0.0100 0.0000 0.0000  plane waves:    1363
 k-point  3 :   0.0100 0.0000 0.0000  plane waves:    1363
 k-point  4 :   0.0000-0.0100 0.0000  plane waves:    1363
 k-point  5 :   0.0000 0.0100 0.0000  plane waves:    1363
 k-point  6 :   0.0000 0.0000-0.0100  plane waves:    1363
 k-point  7 :   0.0000 0.0000 0.0100  plane waves:    1363
 k-point  8 :  -0.0100-0.0100 0.0000  plane waves:    1363
 k-point  9 :   0.0100 0.0100 0.0000  plane waves:    1363
 k-point 10 :   0.0100-0.0100 0.0000  plane waves:    1363
 k-point 11 :  -0.0100 0.0100 0.0000  plane waves:    1363
 k-point 12 :  -0.0100 0.0000-0.0100  plane waves:    1363
 k-point 13 :   0.0100 0.0000 0.0100  plane waves:    1363
 k-point 14 :   0.0100 0.0000-0.0100  plane waves:    1363
 k-point 15 :  -0.0100 0.0000 0.0100  plane waves:    1363
 k-point 16 :   0.0000-0.0100-0.0100  plane waves:    1363
 k-point 17 :   0.0000 0.0100 0.0100  plane waves:    1363
 k-point 18 :   0.0000 0.0100-0.0100  plane waves:    1363
 k-point 19 :   0.0000-0.0100 0.0100  plane waves:    1363

 maximum number of plane-waves:      1363
 maximum index in each direction: 
   IXMAX=    7   IYMAX=    7   IZMAX=    7
   IXMIN=   -7   IYMIN=   -7   IZMIN=   -7


 total amount of memory used by VASP MPI-rank0    42755. kBytes
=======================================================================

   base      :      30000. kBytes
   nonl-proj :       1701. kBytes
   grid      :       6018. kBytes
   one-center:          6. kBytes
   wavefun   :       5030. kBytes
 
     INWAV:  cpu time    0.0000: real time    0.0000
 Broyden mixing: mesh for mixing (old mesh)
   NGX = 15   NGY = 15   NGZ = 15
  (NGX  = 48   NGY  = 48   NGZ  = 48)
  gives a total of   3375 points

 initial charge density was supplied:
 charge density of overlapping atoms calculated
 number of electron       8.0000000 magnetization 
 keeping initial charge density in first step


--------------------------------------------------------------------------------------------------------


 Maximum index for augmentation-charges        11057 (set IRDMAX)


--------------------------------------------------------------------------------------------------------


 First call to EWALD:  gamma=   0.517
 Maximum number of real-space cells 3x 3x 3
 Maximum number of reciprocal cells 3x 3x 3

    FEWALD:  cpu time    0.0009: real time    0.0008


--------------------------------------- Iteration      1(   1)  ---------------------------------------


    POTLOK:  cpu time    0.0325: real time    0.0295
    SETDIJ:  cpu time    0.0022: real time    0.0020
     EDDAV:  cpu time    0.2831: real time    0.2556
       DOS:  cpu time    0.0007: real time    0.0007
    --------------------------------------------
      LOOP:  cpu time    0.3186: real time    0.2877

 eigenvalue-minimisations  :   456
 total energy-change (2. order) : 0.2524932E+02  (-0.3502592E+03)
 number of electron       8.0000000 magnetization 
 augmentation part        8.0000000 magnetization 

 Free energy of the ion-electron system (eV)
  ---------------------------------------------------
  alpha Z        PSCENC =         3.33880741
  Ewald energy   TEWEN  =      -227.98820643
  -Hartree energ DENC   =       -11.11484531
  -exchange      EXHF   =         0.00000000
  -V(xc)+E(xc)   XCENC  =       -18.63153637
  PAW double counting   =       176.24759923     -141.06103558
  entropy T*S    EENTRO =        -0.04895256
  eigenvalues    EBANDS =        38.37437133
  atomic energy  EATOM  =       206.13311910
  Solvation  Ediel_sol  =         0.00000000
  ---------------------------------------------------
  free energy    TOTEN  =        25.24932082 eV

  energy without entropy =       25.29827338  energy(sigma->0) =       25.27379710


--------------------------------------------------------------------------------------------------------




--------------------------------------- Iteration      1(   2)  ---------------------------------------


     EDDAV:  cpu time    0.3340: real time    0.3006
       DOS:  cpu time    0.0006: real time    0.0005
    --------------------------------------------
      LOOP:  cpu time    0.3345: real time    0.3011

 eigenvalue-minimisations  :   572
 total energy-change (2. order) :-0.1931864E+02  (-0.1669292E+02)
 number of electron       8.0000000 magnetization 
 augmentation part        8.0000000 magnetization 

 Free energy of the ion-electron system (eV)
  ---------------------------------------------------
  alpha Z        PSCENC =         3.33880741
  Ewald energy   TEWEN  =      -227.98820643
  -Hartree energ DENC   =       -11.11484531
  -exchange      EXHF   =         0.00000000
  -V(xc)+E(xc)   XCENC  =       -18.63153637
  PAW double counting   =       176.24759923     -141.06103558
  entropy T*S    EENTRO =        -0.00000000
  eigenvalues    EBANDS =        19.00678218
  atomic energy  EATOM  =       206.13311910
  Solvation  Ediel_sol  =         0.00000000
  ---------------------------------------------------
  free energy    TOTEN  =         5.93068422 eV

  energy without entropy =        5.93068422  energy(sigma->0) =        5.93068422


--------------------------------------------------------------------------------------------------------




--------------------------------------- Iteration      1(   3)  ---------------------------------------


     EDDAV:  cpu time    0.3218: real time    0.2897
       DOS:  cpu time    0.0006: real time    0.0006
    --------------------------------------------
      LOOP:  cpu time    0.3225: real time    0.2903

 eigenvalue-minimisations  :   552
 total energy-change (2. order) :-0.1039373E+01  (-0.1030154E+01)
 number of electron       8.0000000 magnetization 
 augmentation part        8.0000000 magnetization 

 Free energy of the ion-electron system (eV)
  ---------------------------------------------------
  alpha Z        PSCENC =         3.33880741
  Ewald energy   TEWEN  =      -227.98820643
  -Hartree energ DENC   =       -11.11484531
  -exchange      EXHF   =         0.00000000
  -V(xc)+E(xc)   XCENC  =       -18.63153637
  PAW double counting   =       176.24759923     -141.06103558
  entropy T*S    EENTRO =        -0.00000000
  eigenvalues    EBANDS =        17.96740963
  atomic energy  EATOM  =       206.13311910
  Solvation  Ediel_sol  =         0.00000000
  ---------------------------------------------------
  free energy    TOTEN  =         4.89131167 eV

  energy without entropy =        4.89131167  energy(sigma->0) =        4.89131167


--------------------------------------------------------------------------------------------------------




--------------------------------------- Iteration      1(   4)  ---------------------------------------


     EDDAV:  cpu time    0.2843: real time    0.2564
       DOS:  cpu time    0.0006: real time    0.0006
    --------------------------------------------
      LOOP:  cpu time    0.2849: real time    0.2569

 eigenvalue-minimisations  :   464
 total energy-change (2. order) :-0.8778163E-02  (-0.8774715E-02)
 number of electron       8.0000000 magnetization 
 augmentation part        8.0000000 magnetization 

 Free energy of the ion-electron system (eV)
  ---------------------------------------------------
  alpha Z        PSCENC =         3.33880741
  Ewald energy   TEWEN  =      -227.98820643
  -Hartree energ DENC   =       -11.11484531
  -exchange      EXHF   =         0.00000000
  -V(xc)+E(xc)   XCENC  =       -18.63153637
  PAW double counting   =       176.24759923     -141.06103558
  entropy T*S    EENTRO =        -0.00000000
  eigenvalues    EBANDS =        17.95863146
  atomic energy  EATOM  =       206.13311910
  Solvation  Ediel_sol  =         0.00000000
  ---------------------------------------------------
  free energy    TOTEN  =         4.88253351 eV

  energy without entropy =        4.88253351  energy(sigma->0) =        4.88253351


--------------------------------------------------------------------------------------------------------




--------------------------------------- Iteration      1(   5)  ---------------------------------------


     EDDAV:  cpu time    0.3130: real time    0.2817
       DOS:  cpu time    0.0006: real time    0.0006
    CHARGE:  cpu time    0.0153: real time    0.0138
    MIXING:  cpu time    0.0011: real time    0.0010
    --------------------------------------------
      LOOP:  cpu time    0.3300: real time    0.2971

 eigenvalue-minimisations  :   532
 total energy-change (2. order) :-0.7010302E-04  (-0.7010155E-04)
 number of electron       7.9999999 magnetization 
 augmentation part       -0.3499241 magnetization 

 Broyden mixing:
  rms(total) = 0.81218E+00    rms(broyden)= 0.81218E+00
  rms(prec ) = 0.20925E+01
  weight for this iteration     100.00

 Free energy of the ion-electron system (eV)
  ---------------------------------------------------
  alpha Z        PSCENC =         3.33880741
  Ewald energy   TEWEN  =      -227.98820643
  -Hartree energ DENC   =       -11.11484531
  -exchange      EXHF   =         0.00000000
  -V(xc)+E(xc)   XCENC  =       -18.63153637
  PAW double counting   =       176.24759923     -141.06103558
  entropy T*S    EENTRO =        -0.00000000
  eigenvalues    EBANDS =        17.95856136
  atomic energy  EATOM  =       206.13311910
  Solvation  Ediel_sol  =         0.00000000
  ---------------------------------------------------
  free energy    TOTEN  =         4.88246341 eV

  energy without entropy =        4.88246341  energy(sigma->0) =        4.88246341


--------------------------------------------------------------------------------------------------------




--------------------------------------- Iteration      1(   6)  ---------------------------------------


    POTLOK:  cpu time    0.0310: real time    0.0279
    SETDIJ:  cpu time    0.0021: real time    0.0019
     EDDAV:  cpu time    0.2814: real time    0.2533
       DOS:  cpu time    0.0006: real time    0.0006
    CHARGE:  cpu time    0.0149: real time    0.0134
    MIXING:  cpu time    0.0012: real time    0.0011
    --------------------------------------------
      LOOP:  cpu time    0.3313: real time    0.2982

 eigenvalue-minimisations  :   456
 total energy-change (2. order) : 0.7654043E+00  (-0.2091606E-01)
 number of electron       7.9999999 magnetization 
 augmentation part       -0.3400199 magnetization 

 Broyden mixing:
  rms(total) = 0.49952E+00    rms(broyden)= 0.49952E+00
  rms(prec ) = 0.12669E+01
  weight for this iteration     100.00

 eigenvalues of (default mixing * dielectric matrix)
  average eigenvalue GAMMA=   2.5686
  2.5686

 Free energy of the ion-electron system (eV)
  ---------------------------------------------------
  alpha Z        PSCENC =         3.33880741
  Ewald energy   TEWEN  =      -227.98820643
  -Hartree energ DENC   =       -15.02677702
  -exchange      EXHF   =         0.00000000
  -V(xc)+E(xc)   XCENC  =       -18.11837380
  PAW double counting   =       360.20372742     -325.18128712
  entropy T*S    EENTRO =        -0.00000000
  eigenvalues    EBANDS =        22.28685812
  atomic energy  EATOM  =       206.13311910
  Solvation  Ediel_sol  =         0.00000000
  ---------------------------------------------------
  free energy    TOTEN  =         5.64786768 eV

  energy without entropy =        5.64786768  energy(sigma->0) =        5.64786768


--------------------------------------------------------------------------------------------------------




--------------------------------------- Iteration      1(   7)  ---------------------------------------


    POTLOK:  cpu time    0.0306: real time    0.0275
    SETDIJ:  cpu time    0.0021: real time    0.0019
     EDDAV:  cpu time    0.2810: real time    0.2529
       DOS:  cpu time    0.0007: real time    0.0006
    CHARGE:  cpu time    0.0150: real time    0.0135
    MIXING:  cpu time    0.0012: real time    0.0011
    --------------------------------------------
      LOOP:  cpu time    0.3306: real time    0.2976

 eigenvalue-minimisations  :   456
 total energy-change (2. order) : 0.3824500E+00  (-0.6488498E-01)
 number of electron       7.9999999 magnetization 
 augmentation part       -0.3247868 magnetization 

 Broyden mixing:
  rms(total) = 0.50905E-01    rms(broyden)= 0.50905E-01
  rms(prec ) = 0.98186E-01
  weight for this iteration     100.00

 eigenvalues of (default mixing * dielectric matrix)
  average eigenvalue GAMMA=   2.2111
  2.0401  2.3821

 Free energy of the ion-electron system (eV)
  ---------------------------------------------------
  alpha Z        PSCENC =         3.33880741
  Ewald energy   TEWEN  =      -227.98820643
  -Hartree energ DENC   =       -23.03084427
  -exchange      EXHF   =         0.00000000
  -V(xc)+E(xc)   XCENC  =       -17.02913424
  PAW double counting   =       841.63030024     -806.82145799
  entropy T*S    EENTRO =        -0.00000000
  eigenvalues    EBANDS =        29.79773382
  atomic energy  EATOM  =       206.13311910
  Solvation  Ediel_sol  =         0.00000000
  ---------------------------------------------------
  free energy    TOTEN  =         6.03031764 eV

  energy without entropy =        6.03031764  energy(sigma->0) =        6.03031764


--------------------------------------------------------------------------------------------------------




--------------------------------------- Iteration      1(   8)  ---------------------------------------


    POTLOK:  cpu time    0.0307: real time    0.0276
    SETDIJ:  cpu time    0.0019: real time    0.0017
     EDDAV:  cpu time    0.2816: real time    0.2535
       DOS:  cpu time    0.0006: real time    0.0006
    CHARGE:  cpu time    0.0149: real time    0.0134
    MIXING:  cpu time    0.0013: real time    0.0012
    --------------------------------------------
      LOOP:  cpu time    0.3311: real time    0.2980

 eigenvalue-minimisations  :   456
 total energy-change (2. order) :-0.1287734E-01  (-0.1481917E-02)
 number of electron       7.9999999 magnetization 
 augmentation part       -0.3259190 magnetization 

 Broyden mixing:
  rms(total) = 0.10556E-01    rms(broyden)= 0.10556E-01
  rms(prec ) = 0.33579E-01
  weight for this iteration     100.00

 eigenvalues of (default mixing * dielectric matrix)
  average eigenvalue GAMMA=   2.0046
  1.0301  2.4918  2.4918

 Free energy of the ion-electron system (eV)
  ---------------------------------------------------
  alpha Z        PSCENC =         3.33880741
  Ewald energy   TEWEN  =      -227.98820643
  -Hartree energ DENC   =       -22.73524730
  -exchange      EXHF   =         0.00000000
  -V(xc)+E(xc)   XCENC  =       -17.05972295
  PAW double counting   =       873.72510795     -838.83391649
  entropy T*S    EENTRO =        -0.00000000
  eigenvalues    EBANDS =        29.43749899
  atomic energy  EATOM  =       206.13311910
  Solvation  Ediel_sol  =         0.00000000
  ---------------------------------------------------
  free energy    TOTEN  =         6.01744029 eV

  energy without entropy =        6.01744029  energy(sigma->0) =        6.01744029


--------------------------------------------------------------------------------------------------------




--------------------------------------- Iteration      1(   9)  ---------------------------------------


    POTLOK:  cpu time    0.0306: real time    0.0275
    SETDIJ:  cpu time    0.0019: real time    0.0017
     EDDAV:  cpu time    0.2812: real time    0.2531
       DOS:  cpu time    0.0006: real time    0.0006
    CHARGE:  cpu time    0.0149: real time    0.0134
    MIXING:  cpu time    0.0014: real time    0.0012
    --------------------------------------------
      LOOP:  cpu time    0.3307: real time    0.2976

 eigenvalue-minimisations  :   456
 total energy-change (2. order) :-0.7573483E-03  (-0.1077828E-03)
 number of electron       7.9999999 magnetization 
 augmentation part       -0.3258071 magnetization 

 Broyden mixing:
  rms(total) = 0.71464E-02    rms(broyden)= 0.71464E-02
  rms(prec ) = 0.94856E-02
  weight for this iteration     100.00

 eigenvalues of (default mixing * dielectric matrix)
  average eigenvalue GAMMA=   1.6037
  2.4744  2.4744  1.0308  0.4354

 Free energy of the ion-electron system (eV)
  ---------------------------------------------------
  alpha Z        PSCENC =         3.33880741
  Ewald energy   TEWEN  =      -227.98820643
  -Hartree energ DENC   =       -22.97154228
  -exchange      EXHF   =         0.00000000
  -V(xc)+E(xc)   XCENC  =       -17.02472990
  PAW double counting   =       889.76404314     -854.87096980
  entropy T*S    EENTRO =        -0.00000000
  eigenvalues    EBANDS =        29.63616170
  atomic energy  EATOM  =       206.13311910
  Solvation  Ediel_sol  =         0.00000000
  ---------------------------------------------------
  free energy    TOTEN  =         6.01668294 eV

  energy without entropy =        6.01668294  energy(sigma->0) =        6.01668294


--------------------------------------------------------------------------------------------------------




--------------------------------------- Iteration      1(  10)  ---------------------------------------


    POTLOK:  cpu time    0.0307: real time    0.0276
    SETDIJ:  cpu time    0.0019: real time    0.0017
     EDDAV:  cpu time    0.3149: real time    0.2836
       DOS:  cpu time    0.0006: real time    0.0006
    CHARGE:  cpu time    0.0150: real time    0.0135
    MIXING:  cpu time    0.0014: real time    0.0013
    --------------------------------------------
      LOOP:  cpu time    0.3646: real time    0.3282

 eigenvalue-minimisations  :   536
 total energy-change (2. order) :-0.1419052E-03  (-0.9793001E-05)
 number of electron       7.9999999 magnetization 
 augmentation part       -0.3257594 magnetization 

 Broyden mixing:
  rms(total) = 0.11866E-02    rms(broyden)= 0.11866E-02
  rms(prec ) = 0.24710E-02
  weight for this iteration     100.00

 eigenvalues of (default mixing * dielectric matrix)
  average eigenvalue GAMMA=   1.9872
  3.1297  2.6013  2.2355  1.0819  0.8876

 Free energy of the ion-electron system (eV)
  ---------------------------------------------------
  alpha Z        PSCENC =         3.33880741
  Ewald energy   TEWEN  =      -227.98820643
  -Hartree energ DENC   =       -22.99220391
  -exchange      EXHF   =         0.00000000
  -V(xc)+E(xc)   XCENC  =       -17.02283875
  PAW double counting   =       877.18916741     -842.30007287
  entropy T*S    EENTRO =        -0.00000000
  eigenvalues    EBANDS =        29.65876907
  atomic energy  EATOM  =       206.13311910
  Solvation  Ediel_sol  =         0.00000000
  ---------------------------------------------------
  free energy    TOTEN  =         6.01654104 eV

  energy without entropy =        6.01654104  energy(sigma->0) =        6.01654104


--------------------------------------------------------------------------------------------------------




--------------------------------------- Iteration      1(  11)  ---------------------------------------


    POTLOK:  cpu time    0.0308: real time    0.0278
    SETDIJ:  cpu time    0.0021: real time    0.0019
     EDDAV:  cpu time    0.2990: real time    0.2691
       DOS:  cpu time    0.0006: real time    0.0006
    CHARGE:  cpu time    0.0150: real time    0.0135
    MIXING:  cpu time    0.0015: real time    0.0014
    --------------------------------------------
      LOOP:  cpu time    0.3491: real time    0.3142

 eigenvalue-minimisations  :   496
 total energy-change (2. order) :-0.1768255E-04  (-0.1821544E-05)
 number of electron       7.9999999 magnetization 
 augmentation part       -0.3257790 magnetization 

 Broyden mixing:
  rms(total) = 0.55770E-03    rms(broyden)= 0.55770E-03
  rms(prec ) = 0.75201E-03
  weight for this iteration     100.00

 eigenvalues of (default mixing * dielectric matrix)
  average eigenvalue GAMMA=   2.0212
  3.1293  2.5503  2.5503  1.8630  0.9805  1.0535

 Free energy of the ion-electron system (eV)
  ---------------------------------------------------
  alpha Z        PSCENC =         3.33880741
  Ewald energy   TEWEN  =      -227.98820643
  -Hartree energ DENC   =       -23.00263951
  -exchange      EXHF   =         0.00000000
  -V(xc)+E(xc)   XCENC  =       -17.02116997
  PAW double counting   =       877.64697134     -842.75668503
  entropy T*S    EENTRO =        -0.00000000
  eigenvalues    EBANDS =        29.66632645
  atomic energy  EATOM  =       206.13311910
  Solvation  Ediel_sol  =         0.00000000
  ---------------------------------------------------
  free energy    TOTEN  =         6.01652336 eV

  energy without entropy =        6.01652336  energy(sigma->0) =        6.01652336


--------------------------------------------------------------------------------------------------------




--------------------------------------- Iteration      1(  12)  ---------------------------------------


    POTLOK:  cpu time    0.0306: real time    0.0275
    SETDIJ:  cpu time    0.0020: real time    0.0018
     EDDAV:  cpu time    0.2576: real time    0.2319
       DOS:  cpu time    0.0006: real time    0.0006
    --------------------------------------------
      LOOP:  cpu time    0.2909: real time    0.2618

 eigenvalue-minimisations  :   404
 total energy-change (2. order) :-0.7001096E-06  (-0.6604184E-07)
 number of electron       7.9999999 magnetization 
 augmentation part       -0.3257790 magnetization 

 Free energy of the ion-electron system (eV)
  ---------------------------------------------------
  alpha Z        PSCENC =         3.33880741
  Ewald energy   TEWEN  =      -227.98820643
  -Hartree energ DENC   =       -23.00674786
  -exchange      EXHF   =         0.00000000
  -V(xc)+E(xc)   XCENC  =       -17.02073525
  PAW double counting   =       878.46581969     -843.57580375
  entropy T*S    EENTRO =        -0.00000000
  eigenvalues    EBANDS =        29.67026974
  atomic energy  EATOM  =       206.13311910
  Solvation  Ediel_sol  =         0.00000000
  ---------------------------------------------------
  free energy    TOTEN  =         6.01652266 eV

  energy without entropy =        6.01652266  energy(sigma->0) =        6.01652266


--------------------------------------------------------------------------------------------------------




 average (electrostatic) potential at core
  the test charge radii are     0.9892
  (the norm of the test charge is              1.0000)
       1 -81.9025       2 -81.9025
 
 
 
 E-fermi :   7.6728     XC(G=0):  -8.9062     alpha+bet :-11.8943


 k-point     1 :       0.0000    0.0000    0.0000
  band No.  band energies     occupation 
      1      -5.3538      2.00000
      2       6.7407      2.00000
      3       6.7407      2.00000
      4       6.7407      2.00000
      5       9.0294      0.00000
      6       9.0294      0.00000
      7       9.0294      0.00000
      8      10.1315      0.00000
      9      13.9767      0.00000
     10      14.0187      0.00000
     11      14.0187      0.00000
     12      17.3101      0.00000

 k-point     2 :      -0.0100    0.0000    0.0000
  band No.  band energies     occupation 
      1      -5.3525      2.00000
      2       6.7235      2.00000
      3       6.7381      2.00000
      4       6.7381      2.00000
      5       9.0331      0.00000
      6       9.0331      0.00000
      7       9.0349      0.00000
      8      10.1405      0.00000
      9      13.9830      0.00000
     10      14.0132      0.00000
     11      14.0132      0.00000
     12      17.3118      0.00000

 k-point     3 :       0.0100    0.0000    0.0000
  band No.  band energies     occupation 
      1      -5.3525      2.00000
      2       6.7235      2.00000
      3       6.7381      2.00000
      4       6.7381      2.00000
      5       9.0331      0.00000
      6       9.0331      0.00000
      7       9.0349      0.00000
      8      10.1405      0.00000
      9      13.9830      0.00000
     10      14.0132      0.00000
     11      14.0132      0.00000
     12      17.3140      0.00000

 k-point     4 :       0.0000   -0.0100    0.0000
  band No.  band energies     occupation 
      1      -5.3525      2.00000
      2       6.7235      2.00000
      3       6.7381      2.00000
      4       6.7381      2.00000
      5       9.0331      0.00000
      6       9.0331      0.00000
      7       9.0349      0.00000
      8      10.1405      0.00000
      9      13.9830      0.00000
     10      14.0132      0.00000
     11      14.0132      0.00000
     12      17.3155      0.00000

 k-point     5 :       0.0000    0.0100    0.0000
  band No.  band energies     occupation 
      1      -5.3525      2.00000
      2       6.7235      2.00000
      3       6.7381      2.00000
      4       6.7381      2.00000
      5       9.0331      0.00000
      6       9.0331      0.00000
      7       9.0349      0.00000
      8      10.1405      0.00000
      9      13.9830      0.00000
     10      14.0132      0.00000
     11      14.0132      0.00000
     12      17.3145      0.00000

 k-point     6 :       0.0000    0.0000   -0.0100
  band No.  band energies     occupation 
      1      -5.3525      2.00000
      2       6.7235      2.00000
      3       6.7381      2.00000
      4       6.7381      2.00000
      5       9.0331      0.00000
      6       9.0331      0.00000
      7       9.0349      0.00000
      8      10.1405      0.00000
      9      13.9830      0.00000
     10      14.0132      0.00000
     11      14.0132      0.00000
     12      17.3141      0.00000

 k-point     7 :       0.0000    0.0000    0.0100
  band No.  band energies     occupation 
      1      -5.3525      2.00000
      2       6.7235      2.00000
      3       6.7381      2.00000
      4       6.7381      2.00000
      5       9.0331      0.00000
      6       9.0331      0.00000
      7       9.0349      0.00000
      8      10.1405      0.00000
      9      13.9830      0.00000
     10      14.0132      0.00000
     11      14.0132      0.00000
     12      17.3050      0.00000

 k-point     8 :      -0.0100   -0.0100    0.0000
  band No.  band energies     occupation 
      1      -5.3521      2.00000
      2       6.7288      2.00000
      3       6.7317      2.00000
      4       6.7317      2.00000
      5       9.0244      0.00000
      6       9.0406      0.00000
      7       9.0406      0.00000
      8      10.1433      0.00000
      9      13.9851      0.00000
     10      14.0021      0.00000
     11      14.0206      0.00000
     12      17.3133      0.00000

 k-point     9 :       0.0100    0.0100    0.0000
  band No.  band energies     occupation 
      1      -5.3521      2.00000
      2       6.7288      2.00000
      3       6.7317      2.00000
      4       6.7317      2.00000
      5       9.0244      0.00000
      6       9.0406      0.00000
      7       9.0406      0.00000
      8      10.1433      0.00000
      9      13.9851      0.00000
     10      14.0021      0.00000
     11      14.0206      0.00000
     12      17.3153      0.00000

 k-point    10 :       0.0100   -0.0100    0.0000
  band No.  band energies     occupation 
      1      -5.3503      2.00000
      2       6.7007      2.00000
      3       6.7227      2.00000
      4       6.7393      2.00000
      5       9.0330      0.00000
      6       9.0382      0.00000
      7       9.0511      0.00000
      8      10.1554      0.00000
      9      13.9935      0.00000
     10      13.9949      0.00000
     11      14.0133      0.00000
     12      17.3157      0.00000

 k-point    11 :      -0.0100    0.0100    0.0000
  band No.  band energies     occupation 
      1      -5.3503      2.00000
      2       6.7007      2.00000
      3       6.7227      2.00000
      4       6.7393      2.00000
      5       9.0330      0.00000
      6       9.0382      0.00000
      7       9.0511      0.00000
      8      10.1554      0.00000
      9      13.9935      0.00000
     10      13.9949      0.00000
     11      14.0133      0.00000
     12      17.3156      0.00000

 k-point    12 :      -0.0100    0.0000   -0.0100
  band No.  band energies     occupation 
      1      -5.3521      2.00000
      2       6.7288      2.00000
      3       6.7317      2.00000
      4       6.7317      2.00000
      5       9.0244      0.00000
      6       9.0406      0.00000
      7       9.0406      0.00000
      8      10.1433      0.00000
      9      13.9851      0.00000
     10      14.0021      0.00000
     11      14.0206      0.00000
     12      17.3143      0.00000

 k-point    13 :       0.0100    0.0000    0.0100
  band No.  band energies     occupation 
      1      -5.3521      2.00000
      2       6.7288      2.00000
      3       6.7317      2.00000
      4       6.7317      2.00000
      5       9.0244      0.00000
      6       9.0406      0.00000
      7       9.0406      0.00000
      8      10.1433      0.00000
      9      13.9851      0.00000
     10      14.0021      0.00000
     11      14.0206      0.00000
     12      17.3194      0.00000

 k-point    14 :       0.0100    0.0000   -0.0100
  band No.  band energies     occupation 
      1      -5.3503      2.00000
      2       6.7007      2.00000
      3       6.7227      2.00000
      4       6.7393      2.00000
      5       9.0330      0.00000
      6       9.0382      0.00000
      7       9.0511      0.00000
      8      10.1554      0.00000
      9      13.9935      0.00000
     10      13.9949      0.00000
     11      14.0133      0.00000
     12      17.3117      0.00000

 k-point    15 :      -0.0100    0.0000    0.0100
  band No.  band energies     occupation 
      1      -5.3503      2.00000
      2       6.7007      2.00000
      3       6.7227      2.00000
      4       6.7393      2.00000
      5       9.0330      0.00000
      6       9.0382      0.00000
      7       9.0511      0.00000
      8      10.1554      0.00000
      9      13.9935      0.00000
     10      13.9949      0.00000
     11      14.0133      0.00000
     12      17.3076      0.00000

 k-point    16 :       0.0000   -0.0100   -0.0100
  band No.  band energies     occupation 
      1      -5.3521      2.00000
      2       6.7288      2.00000
      3       6.7317      2.00000
      4       6.7317      2.00000
      5       9.0244      0.00000
      6       9.0406      0.00000
      7       9.0406      0.00000
      8      10.1433      0.00000
      9      13.9851      0.00000
     10      14.0021      0.00000
     11      14.0206      0.00000
     12      17.3162      0.00000

 k-point    17 :       0.0000    0.0100    0.0100
  band No.  band energies     occupation 
      1      -5.3521      2.00000
      2       6.7288      2.00000
      3       6.7317      2.00000
      4       6.7317      2.00000
      5       9.0244      0.00000
      6       9.0406      0.00000
      7       9.0406      0.00000
      8      10.1433      0.00000
      9      13.9851      0.00000
     10      14.0021      0.00000
     11      14.0206      0.00000
     12      17.3133      0.00000

 k-point    18 :       0.0000    0.0100   -0.0100
  band No.  band energies     occupation 
      1      -5.3503      2.00000
      2       6.7007      2.00000
      3       6.7227      2.00000
      4       6.7393      2.00000
      5       9.0330      0.00000
      6       9.0382      0.00000
      7       9.0511      0.00000
      8      10.1554      0.00000
      9      13.9935      0.00000
     10      13.9949      0.00000
     11      14.0133      0.00000
     12      17.3085      0.00000

 k-point    19 :       0.0000   -0.0100    0.0100
  band No.  band energies     occupation 
      1      -5.3503      2.00000
      2       6.7007      2.00000
      3       6.7227      2.00000
      4       6.7393      2.00000
      5       9.0330      0.00000
      6       9.0382      0.00000
      7       9.0511      0.00000
      8      10.1554      0.00000
      9      13.9935      0.00000
     10      13.9949      0.00000
     11      14.0133      0.00000
     12      17.3163      0.00000


--------------------------------------------------------------------------------------------------------


 soft charge-density along one line, spin component           1
         0         1         2         3         4         5         6         7         8         9
x     8.3258    0.0000    2.3263    0.0000    0.9370    0.0000    0.1964    0.0000   -0.0002   -0.0000
x    -0.0119   -0.0000   -0.0029   -0.0000    0.0000   -0.0000    0.0001    0.0000    0.0000   -0.0000
x    -0.0000   -0.0000   -0.0000   -0.0000    0.0000    0.0000
y     8.3258    0.0000    2.3263    0.0000    0.9370    0.0000    0.1964    0.0000   -0.0002   -0.0000
y    -0.0119   -0.0000   -0.0029   -0.0000    0.0000   -0.0000    0.0001    0.0000    0.0000   -0.0000
y    -0.0000   -0.0000   -0.0000   -0.0000    0.0000    0.0000
z     8.3258    0.0000    2.3263    0.0000    0.9370    0.0000    0.1964    0.0000   -0.0002   -0.0000
z    -0.0119   -0.0000   -0.0029   -0.0000    0.0000   -0.0000    0.0001    0.0000    0.0000   -0.0000
z    -0.0000   -0.0000   -0.0000   -0.0000    0.0000    0.0000
 total charge-density along one line
x     8.0000    0.0000    2.1296    0.0000    0.9370    0.0000    0.2443    0.0000    0.0130   -0.0000
x    -0.0127   -0.0000   -0.0029   -0.0000   -0.0002   -0.0000    0.0001   -0.0000    0.0001   -0.0000
x    -0.0000   -0.0000    0.0000    0.0000   -0.0000   -0.0000    0.0000    0.0000    0.0000    0.0000
x     0.0000    0.0000   -0.0000   -0.0000   -0.0000   -0.0000    0.0000    0.0000   -0.0000   -0.0000
x     0.0000   -0.0000   -0.0000    0.0000   -0.0000    0.0000   -0.0000   -0.0000    0.0000    0.0000
y     8.0000    0.0000    2.1296    0.0000    0.9370    0.0000    0.2443    0.0000    0.0130   -0.0000
y    -0.0127   -0.0000   -0.0029   -0.0000   -0.0002   -0.0000    0.0001   -0.0000    0.0001    0.0000
y    -0.0000    0.0000    0.0000   -0.0000   -0.0000    0.0000    0.0000   -0.0000    0.0000   -0.0000
y     0.0000    0.0000   -0.0000   -0.0000   -0.0000   -0.0000    0.0000   -0.0000   -0.0000   -0.0000
y     0.0000   -0.0000   -0.0000    0.0000   -0.0000    0.0000   -0.0000    0.0000    0.0000   -0.0000
z     8.0000    0.0000    2.1296    0.0000    0.9370    0.0000    0.2443    0.0000    0.0130    0.0000
z    -0.0127   -0.0000   -0.0029    0.0000   -0.0002   -0.0000    0.0001    0.0000    0.0001    0.0000
z    -0.0000   -0.0000    0.0000    0.0000   -0.0000   -0.0000    0.0000   -0.0000    0.0000   -0.0000
z     0.0000   -0.0000   -0.0000    0.0000   -0.0000    0.0000    0.0000    0.0000   -0.0000    0.0000
z     0.0000    0.0000   -0.0000    0.0000   -0.0000   -0.0000   -0.0000    0.0000    0.0000   -0.0000
 
 pseudopotential strength for first ion, spin component:           1
 18.276  25.497   0.000   0.000   0.000   0.000   0.000   0.000
 25.497  35.576   0.000   0.000   0.000   0.000   0.000   0.000
  0.000   0.000   4.162  -0.000  -0.000   7.754  -0.000  -0.000
  0.000   0.000  -0.000   4.162  -0.000  -0.000   7.754  -0.000
  0.000   0.000  -0.000  -0.000   4.162  -0.000  -0.000   7.754
  0.000   0.000   7.754  -0.000  -0.000  14.458  -0.000  -0.000
  0.000   0.000  -0.000   7.754  -0.000  -0.000  14.458  -0.000
  0.000   0.000  -0.000  -0.000   7.754  -0.000  -0.000  14.458
 total augmentation occupancy for first ion, spin component:           1
  7.973  -3.990   0.000   0.000   0.000   0.000   0.000  -0.000
 -3.990   2.002   0.000  -0.000  -0.000   0.000  -0.000  -0.000
 -0.000   0.000   2.441  -0.000   0.000  -0.299  -0.000  -0.000
  0.000  -0.000   0.000   2.441   0.000  -0.000  -0.299  -0.000
  0.000  -0.000   0.000   0.000   2.441  -0.000  -0.000  -0.299
  0.000   0.000  -0.299   0.000  -0.000   0.037  -0.000   0.000
  0.000  -0.000  -0.000  -0.299  -0.000   0.000   0.037   0.000
  0.000  -0.000  -0.000  -0.000  -0.299   0.000   0.000   0.037


------------------------ aborting loop because EDIFF is reached ----------------------------------------


 


 total charge     
 
# of ion       s       p       d       tot
------------------------------------------
    1        0.413   1.258   0.000   1.671
    2        0.413   1.258   0.000   1.671
--------------------------------------------------
tot          0.826   2.517   0.000   3.342
 
    CHARGE:  cpu time    0.0148: real time    0.0134
    FORLOC:  cpu time    0.0013: real time    0.0012
    FORNL :  cpu time    0.0192: real time    0.0173
    STRESS:  cpu time    0.0553: real time    0.0497
    FORCOR:  cpu time    0.0312: real time    0.0281
    FORHAR:  cpu time    0.0063: real time    0.0056
    MIXING:  cpu time    0.0016: real time    0.0014
    OFIELD:  cpu time    0.0000: real time    0.0000

  FORCE on cell =-STRESS in cart. coord.  units (eV):
  Direction    XX          YY          ZZ          XY          YZ          ZX
  --------------------------------------------------------------------------------------
  Alpha Z     3.33881     3.33881     3.33881
  Ewald     -75.99608   -75.99616   -75.99607     0.00001    -0.00000     0.00000
  Hartree     7.66860     7.66860     7.66860     0.00000     0.00000     0.00000
  E(xc)     -26.71568   -26.71568   -26.71568    -0.00000    -0.00000    -0.00000
  Local     -33.32966   -33.32963   -33.32964    -0.00000     0.00001     0.00001
  n-local    67.53334    67.52100    67.58256     0.01740     0.03013     0.04261
  augment    -8.27143    -8.27143    -8.27143    -0.00000    -0.00001    -0.00001
  Kinetic    76.23057    76.23645    76.20714    -0.00829    -0.01434    -0.02029
  Fock        0.00000     0.00000     0.00000     0.00000     0.00000     0.00000
  -------------------------------------------------------------------------------------
  Total      10.46490    10.46491    10.46490     0.00000     0.00000     0.00000
  in kB     415.74078   415.74111   415.74067     0.00000     0.00000     0.00000
  external pressure =      415.74 kB  Pullay stress =        0.00 kB


 VOLUME and BASIS-vectors are now :
 -----------------------------------------------------------------------------
  energy-cutoff  :      600.00
  volume of cell :       40.33
      direct lattice vectors                 reciprocal lattice vectors
     3.333573000  0.000000000  1.924639000     0.299978432 -0.106058350  0.000000000
     1.111191000  3.142924000  1.924639000     0.000000000  0.318175050  0.000000000
     0.000000000  0.000000000  3.849278000    -0.149989216 -0.106058350  0.259788979

  length of vectors
     3.849278403  3.849279412  3.849278000     0.318175161  0.318175050  0.318175190


 FORCES acting on ions
    electron-ion (+dipol)            ewald-force                    non-local-force                 convergence-correction
 -----------------------------------------------------------------------------------------------
   0.801E-05 0.371E-04 0.187E-06   -.892E-05 -.418E-04 -.429E-15   -.249E-17 0.127E-17 -.163E-16   0.708E-10 -.402E-09 0.320E-09
   -.801E-05 -.371E-04 -.187E-06   0.892E-05 0.418E-04 0.408E-15   0.393E-17 -.884E-18 0.122E-16   -.708E-10 0.402E-09 -.320E-09
 -----------------------------------------------------------------------------------------------
   -.624E-14 0.293E-14 0.122E-14   -.341E-15 0.468E-16 -.212E-16   0.144E-17 0.386E-18 -.407E-17   -.124E-14 -.644E-15 -.253E-14
 
 
 POSITION                                       TOTAL-FORCE (eV/Angst)
 -----------------------------------------------------------------------------------
      3.88917      2.75006      6.73624         0.000000      0.000000      0.000000
      0.55560      0.39287      0.96232        -0.000000     -0.000000     -0.000000
 -----------------------------------------------------------------------------------
    total drift:                               -0.000000      0.000000     -0.000000


--------------------------------------------------------------------------------------------------------



  FREE ENERGIE OF THE ION-ELECTRON SYSTEM (eV)
  ---------------------------------------------------
  free  energy   TOTEN  =         6.01652266 eV

  energy  without entropy=        6.01652266  energy(sigma->0) =        6.01652266
 


--------------------------------------------------------------------------------------------------------


    POTLOK:  cpu time    0.0328: real time    0.0295


--------------------------------------------------------------------------------------------------------


 writing wavefunctions
     LOOP+:  cpu time    4.1683: real time    3.7537
    4ORBIT:  cpu time    0.0000: real time    0.0000
 


 total charge     
 
# of ion       s       p       d       tot
------------------------------------------
    1        0.413   1.258   0.000   1.671
    2        0.413   1.258   0.000   1.671
--------------------------------------------------
tot          0.826   2.517   0.000   3.342
 

 total amount of memory used by VASP MPI-rank0    42755. kBytes
=======================================================================

   base      :      30000. kBytes
   nonl-proj :       1701. kBytes
   grid      :       6018. kBytes
   one-center:          6. kBytes
   wavefun   :       5030. kBytes
 
  
  
 General timing and accounting informations for this job:
 ========================================================
  
                  Total CPU time used (sec):        4.429
                            User time (sec):        4.369
                          System time (sec):        0.060
                         Elapsed time (sec):        3.994
  
                   Maximum memory used (kb):       31084.
                   Average memory used (kb):           0.
  
                          Minor page faults:        17684
                          Major page faults:           12
                 Voluntary context switches:           28
