 vasp.5.4.4.18Apr17-6-g9f103f2a35 (build Sep 03 2019 17:22:03) complex          
  
 executed on             LinuxIFC date 2024.12.15  14:45:05
 serial version


--------------------------------------------------------------------------------------------------------


 INCAR:
 POTCAR:    PAW_PBE Si 05Jan2001                  
 POTCAR:    PAW_PBE Si 05Jan2001                  
   SHA256 =  79d9987ad8750f624c4d6acb2a16d13abf6a777132adc04dc6c8399be72b42bb Si
   COPYR  = (c) Copyright 05Jan2001 Georg Kresse                                
   COPYR  = This file is part of the software VASP. Any use, copying, and all ot
   COPYR  = If you do not have a valid VASP license, you may not use, copy or di
   VRHFIN =Si: s2p2                                                             
   LEXCH  = PE                                                                  
   EATOM  =   103.0669 eV,    7.5752 Ry                                         
                                                                                
   TITEL  = PAW_PBE Si 05Jan2001                                                
   LULTRA =        F    use ultrasoft PP ?                                      
   IUNSCR =        1    unscreen: 0-lin 1-nonlin 2-no                           
   RPACOR =    1.500    partial core radius                                     
   POMASS =   28.085; ZVAL   =    4.000    mass and valenz                      
   RCORE  =    1.900    outmost cutoff radius                                   
   RWIGS  =    2.480; RWIGS  =    1.312    wigner-seitz radius (au A)           
   ENMAX  =  245.345; ENMIN  =  184.009 eV                                      
   ICORE  =        2    local potential                                         
   LCOR   =        T    correct aug charges                                     
   LPAW   =        T    paw PP                                                  
   EAUG   =  322.069                                                            
   DEXC   =    0.000                                                            
   RMAX   =    1.950    core radius for proj-oper                               
   RAUG   =    1.300    factor for augmentation sphere                          
   RDEP   =    1.993    radius for radial grids                                 
   RDEPT  =    1.837    core radius for aug-charge                              
                                                                                
   Atomic configuration                                                         
    6 entries                                                                   
     n  l   j            E        occ.                                          
     1  0  0.50     -1785.8828   2.0000                                         
     2  0  0.50      -139.4969   2.0000                                         
     2  1  1.50       -95.5546   6.0000                                         
     3  0  0.50       -10.8127   2.0000                                         
     3  1  0.50        -4.0811   2.0000                                         
     3  2  1.50        -4.0817   0.0000                                         
   Description                                                                  
     l       E           TYP  RCUT    TYP  RCUT                                 
     0    -10.8127223     23  1.900                                             
     0     -7.6451159     23  1.900                                             
     1     -4.0811372     23  1.900                                             
     1      2.4879257     23  1.900                                             
     2     -4.0817478      7  1.900                                             
  local pseudopotential read in
  partial core-charges read in
  partial kinetic energy density read in
  atomic valenz-charges read in
  non local Contribution for L=           0  read in
    real space projection operators read in
  non local Contribution for L=           0  read in
    real space projection operators read in
  non local Contribution for L=           1  read in
    real space projection operators read in
  non local Contribution for L=           1  read in
    real space projection operators read in
    PAW grid and wavefunctions read in
 
   number of l-projection  operators is LMAX  =           4
   number of lm-projection operators is LMMAX =           8
 
  PAW_PBE Si 05Jan2001                  :
 energy of atom  1       EATOM= -103.0669
 kinetic energy error for atom=    0.0003 (will be added to EATOM!!)
 
 
 POSCAR: i2a=[Si] ; Si                           
  positions in direct lattice
  No initial velocities read in
 exchange correlation table for  LEXCH =        8
   RHO(1)=    0.500       N(1)  =     2000
   RHO(2)=  100.500       N(2)  =     4000
 


--------------------------------------------------------------------------------------------------------


 ion  position               nearest neighbor table
   1  0.875  0.875  0.875-   2 2.36   2 2.36   2 2.36   2 2.36
   2  0.125  0.125  0.125-   1 2.36   1 2.36   1 2.36   1 2.36
 
  LATTYP: Found a face centered cubic cell.
 ALAT       =     5.4437011529
  
  Lattice vectors:
  
 A1 = (   3.3335730000,   0.0000000000,   1.9246390000)
 A2 = (   1.1111910000,   3.1429240000,   1.9246390000)
 A3 = (   0.0000000000,   0.0000000000,   3.8492780000)


Analysis of symmetry for initial positions (statically):
=====================================================================
 Subroutine PRICEL returns:
 Original cell was already a primitive cell.
 

 Routine SETGRP: Setting up the symmetry group for a 
 face centered cubic supercell.


 Subroutine GETGRP returns: Found 48 space group operations
 (whereof 12 operations were pure point group operations)
 out of a pool of 48 trial point group operations.


The static configuration has the point symmetry D_3d.
 The point group associated with its full space group is O_h .


Analysis of symmetry for dynamics (positions and initial velocities):
=====================================================================
 Subroutine PRICEL returns:
 Original cell was already a primitive cell.
 

 Routine SETGRP: Setting up the symmetry group for a 
 face centered cubic supercell.


 Subroutine GETGRP returns: Found 48 space group operations
 (whereof 12 operations were pure point group operations)
 out of a pool of 48 trial point group operations.


The dynamic configuration has the point symmetry D_3d.
 The point group associated with its full space group is O_h .


 Subroutine INISYM returns: Found 48 space group operations
 (whereof 12 operations are pure point group operations),
 and found     1 'primitive' translations

 
 
 KPOINTS: Explicit k-point list                   
  k-points in reciprocal lattice
Space group operators:
 irot       det(A)        alpha          n_x          n_y          n_z        tau_x        tau_y        tau_z
    1     1.000000     0.000000     1.000000     0.000000     0.000000     0.000000     0.000000     0.000000
    2    -1.000000     0.000000     1.000000     0.000000     0.000000     0.000000     0.000000     0.000000
    3     1.000000   120.000000    -0.471404    -0.333333    -0.816497     0.000000     0.000000     0.000000
    4    -1.000000   120.000000    -0.471404    -0.333333    -0.816497     0.000000     0.000000     0.000000
    5     1.000000   120.000000     0.471405     0.333333     0.816496     0.000000     0.000000     0.000000
    6    -1.000000   120.000000     0.471405     0.333333     0.816496     0.000000     0.000000     0.000000
    7     1.000000   180.000000     0.288675     0.816496    -0.500000     0.000000     0.000000     0.000000
    8    -1.000000   180.000000     0.288675     0.816496    -0.500000     0.000000     0.000000     0.000000
    9     1.000000   180.000000     0.577350    -0.816496     0.000000     0.000000     0.000000     0.000000
   10    -1.000000   180.000000     0.577350    -0.816496     0.000000     0.000000     0.000000     0.000000
   11     1.000000   180.000000     0.866025    -0.000000    -0.500000     0.000000     0.000000     0.000000
   12    -1.000000   180.000000     0.866025    -0.000000    -0.500000     0.000000     0.000000     0.000000
   13     1.000000    90.000000    -0.816497    -0.577350    -0.000000     0.500000     0.000000     0.000000
   14    -1.000000    90.000000    -0.816497    -0.577350    -0.000000     0.500000     0.000000     0.000000
   15     1.000000   180.000000     0.866025    -0.000000     0.500000     0.500000     0.000000     0.000000
   16    -1.000000   180.000000     0.866025    -0.000000     0.500000     0.500000     0.000000     0.000000
   17     1.000000    90.000000     0.408248    -0.577350     0.707107     0.500000     0.000000     0.000000
   18    -1.000000    90.000000     0.408248    -0.577350     0.707107     0.500000     0.000000     0.000000
   19     1.000000   180.000000     0.816497     0.577350     0.000000     0.000000     0.000000     0.500000
   20    -1.000000   180.000000     0.816497     0.577350     0.000000     0.000000     0.000000     0.500000
   21     1.000000   120.000000     0.942809    -0.333333     0.000000     0.000000     0.000000     0.500000
   22    -1.000000   120.000000     0.942809    -0.333333     0.000000     0.000000     0.000000     0.500000
   23     1.000000   120.000000     0.000000    -1.000000     0.000000     0.000000     0.000000     0.500000
   24    -1.000000   120.000000     0.000000    -1.000000     0.000000     0.000000     0.000000     0.500000
   25     1.000000    90.000000     0.816497     0.577350    -0.000000     0.000000     0.500000     0.000000
   26    -1.000000    90.000000     0.816497     0.577350    -0.000000     0.000000     0.500000     0.000000
   27     1.000000    90.000000     0.408249    -0.577350    -0.707107     0.000000     0.500000     0.000000
   28    -1.000000    90.000000     0.408249    -0.577350    -0.707107     0.000000     0.500000     0.000000
   29     1.000000   179.999999     0.288675     0.816496     0.500000     0.000000     0.500000     0.000000
   30    -1.000000   179.999999     0.288675     0.816496     0.500000     0.000000     0.500000     0.000000
   31     1.000000   120.000000     0.000000     1.000000     0.000000     0.500000     0.000000     0.000000
   32    -1.000000   120.000000     0.000000     1.000000     0.000000     0.500000     0.000000     0.000000
   33     1.000000   120.000000     0.471404     0.333333    -0.816497     0.500000     0.000000     0.000000
   34    -1.000000   120.000000     0.471404     0.333333    -0.816497     0.500000     0.000000     0.000000
   35     1.000000   180.000000    -0.408248     0.577350     0.707107     0.500000     0.000000     0.000000
   36    -1.000000   180.000000    -0.408248     0.577350     0.707107     0.500000     0.000000     0.000000
   37     1.000000    90.000000    -0.408249     0.577350    -0.707107     0.000000     0.000000     0.500000
   38    -1.000000    90.000000    -0.408249     0.577350    -0.707107     0.000000     0.000000     0.500000
   39     1.000000   180.000000    -0.000000     0.000000     1.000000     0.000000     0.000000     0.500000
   40    -1.000000   180.000000    -0.000000     0.000000     1.000000     0.000000     0.000000     0.500000
   41     1.000000    90.000000    -0.408248     0.577350     0.707107     0.000000     0.000000     0.500000
   42    -1.000000    90.000000    -0.408248     0.577350     0.707107     0.000000     0.000000     0.500000
   43     1.000000   120.000000    -0.942809     0.333333     0.000000     0.000000     0.500000     0.000000
   44    -1.000000   120.000000    -0.942809     0.333333     0.000000     0.000000     0.500000     0.000000
   45     1.000000   180.000000    -0.408248     0.577350    -0.707107     0.000000     0.500000     0.000000
   46    -1.000000   180.000000    -0.408248     0.577350    -0.707107     0.000000     0.500000     0.000000
   47     1.000000   120.000000    -0.471405    -0.333333     0.816496     0.000000     0.500000     0.000000
   48    -1.000000   120.000000    -0.471405    -0.333333     0.816496     0.000000     0.500000     0.000000


--------------------------------------------------------------------------------------------------------




 Dimension of arrays:
   k-points           NKPTS =     19   k-points in BZ     NKDIM =     19   number of bands    NBANDS=     12
   number of dos      NEDOS =    301   number of ions     NIONS =      2
   non local maximal  LDIM  =      4   non local SUM 2l+1 LMDIM =      8
   total plane-waves  NPLWV =  13824
   max r-space proj   IRMAX =      1   max aug-charges    IRDMAX=  11659
   dimension x,y,z NGX =    24 NGY =   24 NGZ =   24
   dimension x,y,z NGXF=    48 NGYF=   48 NGZF=   48
   support grid    NGXF=    48 NGYF=   48 NGZF=   48
   ions per type =               2
   NGX,Y,Z   is equivalent  to a cutoff of  10.37, 10.37, 10.37 a.u.
   NGXF,Y,Z  is equivalent  to a cutoff of  20.73, 20.73, 20.73 a.u.

 SYSTEM =  auto Fully inherited from the final st  
 POSCAR =  i2a=[Si] ; Si                           

 Startparameter for this run:
   NWRITE =      2    write-flag & timer
   PREC   = normal    normal or accurate (medium, high low for compatibility)
   ISTART =      0    job   : 0-new  1-cont  2-samecut
   ICHARG =      2    charge: 1-file 2-atom 10-const
   ISPIN  =      1    spin polarized calculation?
   LNONCOLLINEAR =      F non collinear calculations
   LSORBIT =      F    spin-orbit coupling
   INIWAV =      1    electr: 0-lowe 1-rand  2-diag
   LASPH  =      F    aspherical Exc in radial PAW
   METAGGA=      F    non-selfconsistent MetaGGA calc.

 Electronic Relaxation 1
   ENCUT  =  600.0 eV  44.10 Ry    6.64 a.u.   7.69  7.69  7.69*2*pi/ulx,y,z
   ENINI  =  600.0     initial cutoff
   ENAUG  =  700.0 eV  augmentation charge cutoff
   NELM   =     60;   NELMIN=  2; NELMDL= -5     # of ELM steps 
   EDIFF  = 0.1E-04   stopping-criterion for ELM
   LREAL  =      F    real-space projection
   NLSPLINE    = F    spline interpolate recip. space projectors
   LCOMPAT=      F    compatible to vasp.4.4
   GGA_COMPAT  = T    GGA compatible to vasp.4.4-vasp.4.6
   LMAXPAW     = -100 max onsite density
   LMAXMIX     =    2 max onsite mixed and CHGCAR
   VOSKOWN=      0    Vosko Wilk Nusair interpolation
   ROPT   =    0.00000
 Ionic relaxation
   EDIFFG = 0.1E-03   stopping-criterion for IOM
   NSW    =      0    number of steps for IOM
   NBLOCK =      1;   KBLOCK =      1    inner block; outer block 
   IBRION =     -1    ionic relax: 0-MD 1-quasi-New 2-CG
   NFREE  =      0    steps in history (QN), initial steepest desc. (CG)
   ISIF   =      2    stress and relaxation
   IWAVPR =      0    prediction:  0-non 1-charg 2-wave 3-comb
   ISYM   =      2    0-nonsym 1-usesym 2-fastsym
   LCORR  =      T    Harris-Foulkes like correction to forces

   POTIM  = 0.5000    time-step for ionic-motion
   TEIN   =    0.0    initial temperature
   TEBEG  =    0.0;   TEEND  =   0.0 temperature during run
   SMASS  =  -3.00    Nose mass-parameter (am)
   estimated Nose-frequenzy (Omega)   =  0.10E-29 period in steps =****** mass=  -0.339E-27a.u.
   SCALEE = 1.0000    scale energy and forces
   NPACO  =    256;   APACO  = 16.0  distance and # of slots for P.C.
   PSTRESS=    0.0 pullay stress

  Mass of Ions in am
   POMASS =  28.09
  Ionic Valenz
   ZVAL   =   4.00
  Atomic Wigner-Seitz radii
   RWIGS  =  -1.00
  virtual crystal weights 
   VCA    =   1.00
   NELECT =       8.0000    total number of electrons
   NUPDOWN=      -1.0000    fix difference up-down

 DOS related values:
   EMIN   =  10.00;   EMAX   =-10.00  energy-range for DOS
   EFERMI =   0.00
   ISMEAR =     0;   SIGMA  =   0.20  broadening in eV -4-tet -1-fermi 0-gaus

 Electronic relaxation 2 (details)
   IALGO  =     38    algorithm
   LDIAG  =      T    sub-space diagonalisation (order eigenvalues)
   LSUBROT=      F    optimize rotation matrix (better conditioning)
   TURBO    =      0    0=normal 1=particle mesh
   IRESTART =      0    0=no restart 2=restart with 2 vectors
   NREBOOT  =      0    no. of reboots
   NMIN     =      0    reboot dimension
   EREF     =   0.00    reference energy to select bands
   IMIX   =      4    mixing-type and parameters
     AMIX     =   0.40;   BMIX     =  1.00
     AMIX_MAG =   1.60;   BMIX_MAG =  1.00
     AMIN     =   0.10
     WC   =   100.;   INIMIX=   1;  MIXPRE=   1;  MAXMIX= -45

 Intra band minimization:
   WEIMIN = 0.0000     energy-eigenvalue tresh-hold
   EBREAK =  0.21E-06  absolut break condition
   DEPER  =   0.30     relativ break condition  

   TIME   =   0.40     timestep for ELM

  volume/ion in A,a.u.               =      20.16       136.08
  Fermi-wavevector in a.u.,A,eV,Ry     =   0.954766  1.804247 12.402783  0.911579
  Thomas-Fermi vector in A             =   2.083543
 
 Write flags
   LWAVE        =      T    write WAVECAR
   LDOWNSAMPLE  =      F    k-point downsampling of WAVECAR
   LCHARG       =      T    write CHGCAR
   LVTOT        =      F    write LOCPOT, total local potential
   LVHAR        =      F    write LOCPOT, Hartree potential only
   LELF         =      F    write electronic localiz. function (ELF)
   LORBIT       =     11    0 simple, 1 ext, 2 COOP (PROOUT), +10 PAW based schemes


 Dipole corrections
   LMONO  =      F    monopole corrections only (constant potential shift)
   LDIPOL =      F    correct potential (dipole corrections)
   IDIPOL =      0    1-x, 2-y, 3-z, 4-all directions 
   EPSILON=  1.0000000 bulk dielectric constant

 Exchange correlation treatment:
   GGA     =    --    GGA type
   LEXCH   =     8    internal setting for exchange type
   VOSKOWN=      0    Vosko Wilk Nusair interpolation
   LHFCALC =     F    Hartree Fock is set to
   LHFONE  =     F    Hartree Fock one center treatment
   AEXX    =    0.0000 exact exchange contribution

 Linear response parameters
   LEPSILON=     F    determine dielectric tensor
   LRPA    =     F    only Hartree local field effects (RPA)
   LNABLA  =     F    use nabla operator in PAW spheres
   LVEL    =     F    velocity operator in full k-point grid
   LINTERFAST=   F  fast interpolation
   KINTER  =     0    interpolate to denser k-point grid
   CSHIFT  =0.1000    complex shift for real part using Kramers Kronig
   OMEGAMAX=  -1.0    maximum frequency
   DEG_THRESHOLD= 0.2000000E-02 threshold for treating states as degnerate
   RTIME   =   -0.100 relaxation time in fs
  (WPLASMAI=    0.000 imaginary part of plasma frequency in eV, 0.658/RTIME)
   DFIELD  = 0.0000000 0.0000000 0.0000000 field for delta impulse in time
 
 Orbital magnetization related:
   ORBITALMAG=     F  switch on orbital magnetization
   LCHIMAG   =     F  perturbation theory with respect to B field
   DQ        =  0.001000  dq finite difference perturbation B field
   LLRAUG    =     F  two centre corrections for induced B field



--------------------------------------------------------------------------------------------------------


 Static calculation
 charge density and potential will be updated during run
 non-spin polarized calculation
 Variant of blocked Davidson
 Davidson routine will perform the subspace rotation
 perform sub-space diagonalisation
    after iterative eigenvector-optimisation
 modified Broyden-mixing scheme, WC =      100.0
 initial mixing is a Kerker type mixing with AMIX =  0.4000 and BMIX =      1.0000
 Hartree-type preconditioning will be used
 using additional bands            8
 reciprocal scheme for non local part
 use partial core corrections
 calculate Harris-corrections to forces 
   (improved forces if not selfconsistent)
 use gradient corrections 
 use of overlap-Matrix (Vanderbilt PP)
 Gauss-broadening in eV      SIGMA  =   0.20


--------------------------------------------------------------------------------------------------------


  energy-cutoff  :      600.00
  volume of cell :       40.33
      direct lattice vectors                 reciprocal lattice vectors
     3.333573000  0.000000000  1.924639000     0.299978432 -0.106058350  0.000000000
     1.111191000  3.142924000  1.924639000     0.000000000  0.318175050  0.000000000
     0.000000000  0.000000000  3.849278000    -0.149989216 -0.106058350  0.259788979

  length of vectors
     3.849278403  3.849279412  3.849278000     0.318175161  0.318175050  0.318175190


 
 k-points in units of 2pi/SCALE and weight: Explicit k-point list                   
   0.00000000  0.00000000  0.19484173       0.053
  -0.00299978  0.00106058  0.19484173       0.053
   0.00299978 -0.00106058  0.19484173       0.053
   0.00000000 -0.00318175  0.19484173       0.053
   0.00000000  0.00318175  0.19484173       0.053
   0.00149989  0.00106058  0.19224384       0.053
  -0.00149989 -0.00106058  0.19743962       0.053
  -0.00299978 -0.00212117  0.19484173       0.053
   0.00299978  0.00212117  0.19484173       0.053
   0.00299978 -0.00424233  0.19484173       0.053
  -0.00299978  0.00424233  0.19484173       0.053
  -0.00149989  0.00212117  0.19224384       0.053
   0.00149989 -0.00212117  0.19743962       0.053
   0.00449968  0.00000000  0.19224384       0.053
  -0.00449968  0.00000000  0.19743962       0.053
   0.00149989 -0.00212117  0.19224384       0.053
  -0.00149989  0.00212117  0.19743962       0.053
   0.00149989  0.00424233  0.19224384       0.053
  -0.00149989 -0.00424233  0.19743962       0.053
 
 k-points in reciprocal lattice and weights: Explicit k-point list                   
   0.37500000  0.37500000  0.75000000       0.053
   0.36500000  0.37500000  0.75000000       0.053
   0.38500000  0.37500000  0.75000000       0.053
   0.37500000  0.36500000  0.75000000       0.053
   0.37500000  0.38500000  0.75000000       0.053
   0.37500000  0.37500000  0.74000000       0.053
   0.37500000  0.37500000  0.76000000       0.053
   0.36500000  0.36500000  0.75000000       0.053
   0.38500000  0.38500000  0.75000000       0.053
   0.38500000  0.36500000  0.75000000       0.053
   0.36500000  0.38500000  0.75000000       0.053
   0.36500000  0.37500000  0.74000000       0.053
   0.38500000  0.37500000  0.76000000       0.053
   0.38500000  0.37500000  0.74000000       0.053
   0.36500000  0.37500000  0.76000000       0.053
   0.37500000  0.36500000  0.74000000       0.053
   0.37500000  0.38500000  0.76000000       0.053
   0.37500000  0.38500000  0.74000000       0.053
   0.37500000  0.36500000  0.76000000       0.053
 
 position of ions in fractional coordinates (direct lattice) 
   0.87500000  0.87500000  0.87500000
   0.12500000  0.12500000  0.12500000
 
 position of ions in cartesian coordinates  (Angst):
   3.88916850  2.75005850  6.73623650
   0.55559550  0.39286550  0.96231950
 


--------------------------------------------------------------------------------------------------------


 k-point  1 :   0.3750 0.3750 0.7500  plane waves:    1350
 k-point  2 :   0.3650 0.3750 0.7500  plane waves:    1346
 k-point  3 :   0.3850 0.3750 0.7500  plane waves:    1346
 k-point  4 :   0.3750 0.3650 0.7500  plane waves:    1346
 k-point  5 :   0.3750 0.3850 0.7500  plane waves:    1346
 k-point  6 :   0.3750 0.3750 0.7400  plane waves:    1346
 k-point  7 :   0.3750 0.3750 0.7600  plane waves:    1340
 k-point  8 :   0.3650 0.3650 0.7500  plane waves:    1342
 k-point  9 :   0.3850 0.3850 0.7500  plane waves:    1342
 k-point 10 :   0.3850 0.3650 0.7500  plane waves:    1344
 k-point 11 :   0.3650 0.3850 0.7500  plane waves:    1344
 k-point 12 :   0.3650 0.3750 0.7400  plane waves:    1346
 k-point 13 :   0.3850 0.3750 0.7600  plane waves:    1340
 k-point 14 :   0.3850 0.3750 0.7400  plane waves:    1346
 k-point 15 :   0.3650 0.3750 0.7600  plane waves:    1341
 k-point 16 :   0.3750 0.3650 0.7400  plane waves:    1346
 k-point 17 :   0.3750 0.3850 0.7600  plane waves:    1340
 k-point 18 :   0.3750 0.3850 0.7400  plane waves:    1346
 k-point 19 :   0.3750 0.3650 0.7600  plane waves:    1341

 maximum number of plane-waves:      1350
 maximum index in each direction: 
   IXMAX=    7   IYMAX=    7   IZMAX=    6
   IXMIN=   -8   IYMIN=   -8   IZMIN=   -8


 total amount of memory used by VASP MPI-rank0    42691. kBytes
=======================================================================

   base      :      30000. kBytes
   nonl-proj :       1684. kBytes
   grid      :       6018. kBytes
   one-center:          6. kBytes
   wavefun   :       4983. kBytes
 
     INWAV:  cpu time    0.0000: real time    0.0000
 Broyden mixing: mesh for mixing (old mesh)
   NGX = 15   NGY = 15   NGZ = 15
  (NGX  = 48   NGY  = 48   NGZ  = 48)
  gives a total of   3375 points

 initial charge density was supplied:
 charge density of overlapping atoms calculated
 number of electron       8.0000000 magnetization 
 keeping initial charge density in first step


--------------------------------------------------------------------------------------------------------


 Maximum index for augmentation-charges        11057 (set IRDMAX)


--------------------------------------------------------------------------------------------------------


 First call to EWALD:  gamma=   0.517
 Maximum number of real-space cells 3x 3x 3
 Maximum number of reciprocal cells 3x 3x 3

    FEWALD:  cpu time    0.0009: real time    0.0009


--------------------------------------- Iteration      1(   1)  ---------------------------------------


    POTLOK:  cpu time    0.0329: real time    0.0299
    SETDIJ:  cpu time    0.0022: real time    0.0020
     EDDAV:  cpu time    0.2860: real time    0.2580
       DOS:  cpu time    0.0008: real time    0.0007
    --------------------------------------------
      LOOP:  cpu time    0.3219: real time    0.2906

 eigenvalue-minimisations  :   456
 total energy-change (2. order) : 0.2245260E+01  (-0.3265807E+03)
 number of electron       8.0000000 magnetization 
 augmentation part        8.0000000 magnetization 

 Free energy of the ion-electron system (eV)
  ---------------------------------------------------
  alpha Z        PSCENC =         3.33880741
  Ewald energy   TEWEN  =      -227.98820643
  -Hartree energ DENC   =       -11.11484531
  -exchange      EXHF   =         0.00000000
  -V(xc)+E(xc)   XCENC  =       -18.63153637
  PAW double counting   =       176.24759923     -141.06103558
  entropy T*S    EENTRO =        -0.02360209
  eigenvalues    EBANDS =        15.34496016
  atomic energy  EATOM  =       206.13311910
  Solvation  Ediel_sol  =         0.00000000
  ---------------------------------------------------
  free energy    TOTEN  =         2.24526012 eV

  energy without entropy =        2.26886220  energy(sigma->0) =        2.25706116


--------------------------------------------------------------------------------------------------------




--------------------------------------- Iteration      1(   2)  ---------------------------------------


     EDDAV:  cpu time    0.3538: real time    0.3184
       DOS:  cpu time    0.0006: real time    0.0005
    --------------------------------------------
      LOOP:  cpu time    0.3544: real time    0.3189

 eigenvalue-minimisations  :   612
 total energy-change (2. order) :-0.1654698E+02  (-0.1602863E+02)
 number of electron       8.0000000 magnetization 
 augmentation part        8.0000000 magnetization 

 Free energy of the ion-electron system (eV)
  ---------------------------------------------------
  alpha Z        PSCENC =         3.33880741
  Ewald energy   TEWEN  =      -227.98820643
  -Hartree energ DENC   =       -11.11484531
  -exchange      EXHF   =         0.00000000
  -V(xc)+E(xc)   XCENC  =       -18.63153637
  PAW double counting   =       176.24759923     -141.06103558
  entropy T*S    EENTRO =        -0.00000000
  eigenvalues    EBANDS =        -1.22562632
  atomic energy  EATOM  =       206.13311910
  Solvation  Ediel_sol  =         0.00000000
  ---------------------------------------------------
  free energy    TOTEN  =       -14.30172427 eV

  energy without entropy =      -14.30172427  energy(sigma->0) =      -14.30172427


--------------------------------------------------------------------------------------------------------




--------------------------------------- Iteration      1(   3)  ---------------------------------------


     EDDAV:  cpu time    0.3378: real time    0.3041
       DOS:  cpu time    0.0006: real time    0.0006
    --------------------------------------------
      LOOP:  cpu time    0.3385: real time    0.3046

 eigenvalue-minimisations  :   584
 total energy-change (2. order) :-0.4636092E+00  (-0.4629618E+00)
 number of electron       8.0000000 magnetization 
 augmentation part        8.0000000 magnetization 

 Free energy of the ion-electron system (eV)
  ---------------------------------------------------
  alpha Z        PSCENC =         3.33880741
  Ewald energy   TEWEN  =      -227.98820643
  -Hartree energ DENC   =       -11.11484531
  -exchange      EXHF   =         0.00000000
  -V(xc)+E(xc)   XCENC  =       -18.63153637
  PAW double counting   =       176.24759923     -141.06103558
  entropy T*S    EENTRO =        -0.00000000
  eigenvalues    EBANDS =        -1.68923551
  atomic energy  EATOM  =       206.13311910
  Solvation  Ediel_sol  =         0.00000000
  ---------------------------------------------------
  free energy    TOTEN  =       -14.76533347 eV

  energy without entropy =      -14.76533347  energy(sigma->0) =      -14.76533347


--------------------------------------------------------------------------------------------------------




--------------------------------------- Iteration      1(   4)  ---------------------------------------


     EDDAV:  cpu time    0.3469: real time    0.3122
       DOS:  cpu time    0.0007: real time    0.0006
    --------------------------------------------
      LOOP:  cpu time    0.3475: real time    0.3128

 eigenvalue-minimisations  :   600
 total energy-change (2. order) :-0.3624895E-02  (-0.3624299E-02)
 number of electron       8.0000000 magnetization 
 augmentation part        8.0000000 magnetization 

 Free energy of the ion-electron system (eV)
  ---------------------------------------------------
  alpha Z        PSCENC =         3.33880741
  Ewald energy   TEWEN  =      -227.98820643
  -Hartree energ DENC   =       -11.11484531
  -exchange      EXHF   =         0.00000000
  -V(xc)+E(xc)   XCENC  =       -18.63153637
  PAW double counting   =       176.24759923     -141.06103558
  entropy T*S    EENTRO =        -0.00000000
  eigenvalues    EBANDS =        -1.69286041
  atomic energy  EATOM  =       206.13311910
  Solvation  Ediel_sol  =         0.00000000
  ---------------------------------------------------
  free energy    TOTEN  =       -14.76895836 eV

  energy without entropy =      -14.76895836  energy(sigma->0) =      -14.76895836


--------------------------------------------------------------------------------------------------------




--------------------------------------- Iteration      1(   5)  ---------------------------------------


     EDDAV:  cpu time    0.3442: real time    0.3099
       DOS:  cpu time    0.0007: real time    0.0006
    CHARGE:  cpu time    0.0155: real time    0.0139
    MIXING:  cpu time    0.0011: real time    0.0010
    --------------------------------------------
      LOOP:  cpu time    0.3615: real time    0.3254

 eigenvalue-minimisations  :   596
 total energy-change (2. order) :-0.4068151E-04  (-0.4067930E-04)
 number of electron       7.9999999 magnetization 
 augmentation part       -0.4820423 magnetization 

 Broyden mixing:
  rms(total) = 0.46100E+00    rms(broyden)= 0.46100E+00
  rms(prec ) = 0.79970E+00
  weight for this iteration     100.00

 Free energy of the ion-electron system (eV)
  ---------------------------------------------------
  alpha Z        PSCENC =         3.33880741
  Ewald energy   TEWEN  =      -227.98820643
  -Hartree energ DENC   =       -11.11484531
  -exchange      EXHF   =         0.00000000
  -V(xc)+E(xc)   XCENC  =       -18.63153637
  PAW double counting   =       176.24759923     -141.06103558
  entropy T*S    EENTRO =        -0.00000000
  eigenvalues    EBANDS =        -1.69290109
  atomic energy  EATOM  =       206.13311910
  Solvation  Ediel_sol  =         0.00000000
  ---------------------------------------------------
  free energy    TOTEN  =       -14.76899904 eV

  energy without entropy =      -14.76899904  energy(sigma->0) =      -14.76899904


--------------------------------------------------------------------------------------------------------




--------------------------------------- Iteration      1(   6)  ---------------------------------------


    POTLOK:  cpu time    0.0314: real time    0.0283
    SETDIJ:  cpu time    0.0020: real time    0.0018
     EDDAV:  cpu time    0.3465: real time    0.3119
       DOS:  cpu time    0.0006: real time    0.0006
    CHARGE:  cpu time    0.0151: real time    0.0136
    MIXING:  cpu time    0.0012: real time    0.0011
    --------------------------------------------
      LOOP:  cpu time    0.3969: real time    0.3572

 eigenvalue-minimisations  :   604
 total energy-change (2. order) : 0.6828892E-01  (-0.3463400E-02)
 number of electron       7.9999999 magnetization 
 augmentation part       -0.4780631 magnetization 

 Broyden mixing:
  rms(total) = 0.27773E+00    rms(broyden)= 0.27773E+00
  rms(prec ) = 0.47832E+00
  weight for this iteration     100.00

 eigenvalues of (default mixing * dielectric matrix)
  average eigenvalue GAMMA=   2.5107
  2.5107

 Free energy of the ion-electron system (eV)
  ---------------------------------------------------
  alpha Z        PSCENC =         3.33880741
  Ewald energy   TEWEN  =      -227.98820643
  -Hartree energ DENC   =       -12.21860240
  -exchange      EXHF   =         0.00000000
  -V(xc)+E(xc)   XCENC  =       -18.43717507
  PAW double counting   =       382.74649891     -347.65308855
  entropy T*S    EENTRO =        -0.00000000
  eigenvalues    EBANDS =        -0.62206309
  atomic energy  EATOM  =       206.13311910
  Solvation  Ediel_sol  =         0.00000000
  ---------------------------------------------------
  free energy    TOTEN  =       -14.70071013 eV

  energy without entropy =      -14.70071013  energy(sigma->0) =      -14.70071013


--------------------------------------------------------------------------------------------------------




--------------------------------------- Iteration      1(   7)  ---------------------------------------


    POTLOK:  cpu time    0.0312: real time    0.0281
    SETDIJ:  cpu time    0.0020: real time    0.0018
     EDDAV:  cpu time    0.3469: real time    0.3122
       DOS:  cpu time    0.0007: real time    0.0006
    CHARGE:  cpu time    0.0151: real time    0.0136
    MIXING:  cpu time    0.0012: real time    0.0011
    --------------------------------------------
      LOOP:  cpu time    0.3971: real time    0.3574

 eigenvalue-minimisations  :   604
 total energy-change (2. order) : 0.3098010E-01  (-0.6805073E-02)
 number of electron       7.9999999 magnetization 
 augmentation part       -0.4732454 magnetization 

 Broyden mixing:
  rms(total) = 0.13993E-01    rms(broyden)= 0.13993E-01
  rms(prec ) = 0.33002E-01
  weight for this iteration     100.00

 eigenvalues of (default mixing * dielectric matrix)
  average eigenvalue GAMMA=   1.8948
  1.3641  2.4254

 Free energy of the ion-electron system (eV)
  ---------------------------------------------------
  alpha Z        PSCENC =         3.33880741
  Ewald energy   TEWEN  =      -227.98820643
  -Hartree energ DENC   =       -14.02747644
  -exchange      EXHF   =         0.00000000
  -V(xc)+E(xc)   XCENC  =       -18.11304179
  PAW double counting   =       869.90044486     -834.93231745
  entropy T*S    EENTRO =        -0.00000000
  eigenvalues    EBANDS =         1.01894071
  atomic energy  EATOM  =       206.13311910
  Solvation  Ediel_sol  =         0.00000000
  ---------------------------------------------------
  free energy    TOTEN  =       -14.66973003 eV

  energy without entropy =      -14.66973003  energy(sigma->0) =      -14.66973003


--------------------------------------------------------------------------------------------------------




--------------------------------------- Iteration      1(   8)  ---------------------------------------


    POTLOK:  cpu time    0.0314: real time    0.0282
    SETDIJ:  cpu time    0.0022: real time    0.0019
     EDDAV:  cpu time    0.3419: real time    0.3077
       DOS:  cpu time    0.0006: real time    0.0006
    CHARGE:  cpu time    0.0151: real time    0.0135
    MIXING:  cpu time    0.0013: real time    0.0012
    --------------------------------------------
      LOOP:  cpu time    0.3925: real time    0.3532

 eigenvalue-minimisations  :   592
 total energy-change (2. order) :-0.9092249E-03  (-0.3567644E-03)
 number of electron       7.9999999 magnetization 
 augmentation part       -0.4739586 magnetization 

 Broyden mixing:
  rms(total) = 0.89011E-02    rms(broyden)= 0.89011E-02
  rms(prec ) = 0.13699E-01
  weight for this iteration     100.00

 eigenvalues of (default mixing * dielectric matrix)
  average eigenvalue GAMMA=   2.3355
  3.1607  1.9229  1.9229

 Free energy of the ion-electron system (eV)
  ---------------------------------------------------
  alpha Z        PSCENC =         3.33880741
  Ewald energy   TEWEN  =      -227.98820643
  -Hartree energ DENC   =       -13.97611028
  -exchange      EXHF   =         0.00000000
  -V(xc)+E(xc)   XCENC  =       -18.11246373
  PAW double counting   =       857.99079620     -823.00259209
  entropy T*S    EENTRO =        -0.00000000
  eigenvalues    EBANDS =         0.94601055
  atomic energy  EATOM  =       206.13311910
  Solvation  Ediel_sol  =         0.00000000
  ---------------------------------------------------
  free energy    TOTEN  =       -14.67063926 eV

  energy without entropy =      -14.67063926  energy(sigma->0) =      -14.67063926


--------------------------------------------------------------------------------------------------------




--------------------------------------- Iteration      1(   9)  ---------------------------------------


    POTLOK:  cpu time    0.0311: real time    0.0280
    SETDIJ:  cpu time    0.0022: real time    0.0020
     EDDAV:  cpu time    0.3467: real time    0.3121
       DOS:  cpu time    0.0006: real time    0.0006
    CHARGE:  cpu time    0.0152: real time    0.0136
    MIXING:  cpu time    0.0014: real time    0.0012
    --------------------------------------------
      LOOP:  cpu time    0.3971: real time    0.3574

 eigenvalue-minimisations  :   604
 total energy-change (2. order) :-0.1798916E-03  (-0.1891601E-04)
 number of electron       7.9999999 magnetization 
 augmentation part       -0.4740680 magnetization 

 Broyden mixing:
  rms(total) = 0.48114E-02    rms(broyden)= 0.48114E-02
  rms(prec ) = 0.55595E-02
  weight for this iteration     100.00

 eigenvalues of (default mixing * dielectric matrix)
  average eigenvalue GAMMA=   2.0354
  2.8447  2.2106  2.2106  0.8757

 Free energy of the ion-electron system (eV)
  ---------------------------------------------------
  alpha Z        PSCENC =         3.33880741
  Ewald energy   TEWEN  =      -227.98820643
  -Hartree energ DENC   =       -14.01516453
  -exchange      EXHF   =         0.00000000
  -V(xc)+E(xc)   XCENC  =       -18.10387919
  PAW double counting   =       859.40532774     -824.41428858
  entropy T*S    EENTRO =        -0.00000000
  eigenvalues    EBANDS =         0.97346533
  atomic energy  EATOM  =       206.13311910
  Solvation  Ediel_sol  =         0.00000000
  ---------------------------------------------------
  free energy    TOTEN  =       -14.67081915 eV

  energy without entropy =      -14.67081915  energy(sigma->0) =      -14.67081915


--------------------------------------------------------------------------------------------------------




--------------------------------------- Iteration      1(  10)  ---------------------------------------


    POTLOK:  cpu time    0.0310: real time    0.0279
    SETDIJ:  cpu time    0.0022: real time    0.0020
     EDDAV:  cpu time    0.3438: real time    0.3094
       DOS:  cpu time    0.0006: real time    0.0006
    --------------------------------------------
      LOOP:  cpu time    0.3776: real time    0.3398

 eigenvalue-minimisations  :   596
 total energy-change (2. order) :-0.8604105E-05  (-0.5939889E-06)
 number of electron       7.9999999 magnetization 
 augmentation part       -0.4740680 magnetization 

 Free energy of the ion-electron system (eV)
  ---------------------------------------------------
  alpha Z        PSCENC =         3.33880741
  Ewald energy   TEWEN  =      -227.98820643
  -Hartree energ DENC   =       -14.01820123
  -exchange      EXHF   =         0.00000000
  -V(xc)+E(xc)   XCENC  =       -18.10453232
  PAW double counting   =       851.60354878     -816.61264342
  entropy T*S    EENTRO =        -0.00000000
  eigenvalues    EBANDS =         0.97728035
  atomic energy  EATOM  =       206.13311910
  Solvation  Ediel_sol  =         0.00000000
  ---------------------------------------------------
  free energy    TOTEN  =       -14.67082775 eV

  energy without entropy =      -14.67082775  energy(sigma->0) =      -14.67082775


--------------------------------------------------------------------------------------------------------




 average (electrostatic) potential at core
  the test charge radii are     0.9892
  (the norm of the test charge is              1.0000)
       1 -83.5921       2 -83.5921
 
 
 
 E-fermi :   4.1950     XC(G=0):  -9.4313     alpha+bet :-11.8943


 k-point     1 :       0.3750    0.3750    0.7500
  band No.  band energies     occupation 
      1      -2.5790      2.00000
      2      -1.5736      2.00000
      3       1.4082      2.00000
      4       3.2343      2.00000
      5       6.9157      0.00000
      6       9.8017      0.00000
      7      13.0974      0.00000
      8      13.6244      0.00000
      9      13.8344      0.00000
     10      14.1670      0.00000
     11      20.3187      0.00000
     12      20.4928      0.00000

 k-point     2 :       0.3650    0.3750    0.7500
  band No.  band energies     occupation 
      1      -2.5813      2.00000
      2      -1.5711      2.00000
      3       1.4102      2.00000
      4       3.2289      2.00000
      5       6.9247      0.00000
      6       9.8028      0.00000
      7      13.0612      0.00000
      8      13.6094      0.00000
      9      13.8129      0.00000
     10      14.2405      0.00000
     11      20.2343      0.00000
     12      20.5412      0.00000

 k-point     3 :       0.3850    0.3750    0.7500
  band No.  band energies     occupation 
      1      -2.5813      2.00000
      2      -1.5711      2.00000
      3       1.4102      2.00000
      4       3.2289      2.00000
      5       6.9247      0.00000
      6       9.8028      0.00000
      7      13.0612      0.00000
      8      13.6094      0.00000
      9      13.8129      0.00000
     10      14.2405      0.00000
     11      20.2343      0.00000
     12      20.5409      0.00000

 k-point     4 :       0.3750    0.3650    0.7500
  band No.  band energies     occupation 
      1      -2.5813      2.00000
      2      -1.5711      2.00000
      3       1.4102      2.00000
      4       3.2289      2.00000
      5       6.9247      0.00000
      6       9.8028      0.00000
      7      13.0612      0.00000
      8      13.6094      0.00000
      9      13.8129      0.00000
     10      14.2405      0.00000
     11      20.2343      0.00000
     12      20.5405      0.00000

 k-point     5 :       0.3750    0.3850    0.7500
  band No.  band energies     occupation 
      1      -2.5813      2.00000
      2      -1.5711      2.00000
      3       1.4102      2.00000
      4       3.2289      2.00000
      5       6.9247      0.00000
      6       9.8028      0.00000
      7      13.0612      0.00000
      8      13.6094      0.00000
      9      13.8129      0.00000
     10      14.2405      0.00000
     11      20.2343      0.00000
     12      20.5403      0.00000

 k-point     6 :       0.3750    0.3750    0.7400
  band No.  band energies     occupation 
      1      -2.6275      2.00000
      2      -1.5235      2.00000
      3       1.3778      2.00000
      4       3.2677      2.00000
      5       6.9545      0.00000
      6      10.0026      0.00000
      7      12.9684      0.00000
      8      13.4644      0.00000
      9      13.7705      0.00000
     10      14.0689      0.00000
     11      20.3764      0.00000
     12      20.5713      0.00000

 k-point     7 :       0.3750    0.3750    0.7600
  band No.  band energies     occupation 
      1      -2.5398      2.00000
      2      -1.6160      2.00000
      3       1.4462      2.00000
      4       3.2026      2.00000
      5       6.8791      0.00000
      6       9.6037      0.00000
      7      13.2131      0.00000
      8      13.7107      0.00000
      9      13.9743      0.00000
     10      14.2824      0.00000
     11      20.2398      0.00000
     12      20.3649      0.00000

 k-point     8 :       0.3650    0.3650    0.7500
  band No.  band energies     occupation 
      1      -2.5918      2.00000
      2      -1.5621      2.00000
      3       1.4133      2.00000
      4       3.2357      2.00000
      5       6.9177      0.00000
      6       9.8037      0.00000
      7      13.0694      0.00000
      8      13.5102      0.00000
      9      13.9484      0.00000
     10      14.1982      0.00000
     11      20.2989      0.00000
     12      20.4029      0.00000

 k-point     9 :       0.3850    0.3850    0.7500
  band No.  band energies     occupation 
      1      -2.5918      2.00000
      2      -1.5621      2.00000
      3       1.4133      2.00000
      4       3.2357      2.00000
      5       6.9177      0.00000
      6       9.8037      0.00000
      7      13.0694      0.00000
      8      13.5102      0.00000
      9      13.9484      0.00000
     10      14.1982      0.00000
     11      20.2989      0.00000
     12      20.4029      0.00000

 k-point    10 :       0.3850    0.3650    0.7500
  band No.  band energies     occupation 
      1      -2.5753      2.00000
      2      -1.5752      2.00000
      3       1.4111      2.00000
      4       3.2117      2.00000
      5       6.9496      0.00000
      6       9.8042      0.00000
      7      12.9976      0.00000
      8      13.6431      0.00000
      9      13.7237      0.00000
     10      14.3588      0.00000
     11      20.1147      0.00000
     12      20.6728      0.00000

 k-point    11 :       0.3650    0.3850    0.7500
  band No.  band energies     occupation 
      1      -2.5753      2.00000
      2      -1.5752      2.00000
      3       1.4111      2.00000
      4       3.2117      2.00000
      5       6.9496      0.00000
      6       9.8042      0.00000
      7      12.9976      0.00000
      8      13.6431      0.00000
      9      13.7237      0.00000
     10      14.3588      0.00000
     11      20.1147      0.00000
     12      20.6729      0.00000

 k-point    12 :       0.3650    0.3750    0.7400
  band No.  band energies     occupation 
      1      -2.6239      2.00000
      2      -1.5263      2.00000
      3       1.3772      2.00000
      4       3.2617      2.00000
      5       6.9625      0.00000
      6      10.0027      0.00000
      7      12.9471      0.00000
      8      13.5266      0.00000
      9      13.6717      0.00000
     10      14.1263      0.00000
     11      20.3195      0.00000
     12      20.6442      0.00000

 k-point    13 :       0.3850    0.3750    0.7600
  band No.  band energies     occupation 
      1      -2.5351      2.00000
      2      -1.6199      2.00000
      3       1.4457      2.00000
      4       3.1966      2.00000
      5       6.8872      0.00000
      6       9.6039      0.00000
      7      13.1925      0.00000
      8      13.7802      0.00000
      9      13.8709      0.00000
     10      14.3360      0.00000
     11      20.1586      0.00000
     12      20.4746      0.00000

 k-point    14 :       0.3850    0.3750    0.7400
  band No.  band energies     occupation 
      1      -2.6349      2.00000
      2      -1.5168      2.00000
      3       1.3826      2.00000
      4       3.2631      2.00000
      5       6.9645      0.00000
      6      10.0046      0.00000
      7      12.9162      0.00000
      8      13.4159      0.00000
      9      13.7780      0.00000
     10      14.1645      0.00000
     11      20.2880      0.00000
     12      20.5640      0.00000

 k-point    15 :       0.3650    0.3750    0.7600
  band No.  band energies     occupation 
      1      -2.5500      2.00000
      2      -1.6060      2.00000
      3       1.4505      2.00000
      4       3.1980      2.00000
      5       6.8892      0.00000
      6       9.6059      0.00000
      7      13.1600      0.00000
      8      13.6517      0.00000
      9      13.9946      0.00000
     10      14.3760      0.00000
     11      20.1190      0.00000
     12      20.3975      0.00000

 k-point    16 :       0.3750    0.3650    0.7400
  band No.  band energies     occupation 
      1      -2.6239      2.00000
      2      -1.5263      2.00000
      3       1.3772      2.00000
      4       3.2617      2.00000
      5       6.9625      0.00000
      6      10.0027      0.00000
      7      12.9471      0.00000
      8      13.5266      0.00000
      9      13.6717      0.00000
     10      14.1263      0.00000
     11      20.3195      0.00000
     12      20.6440      0.00000

 k-point    17 :       0.3750    0.3850    0.7600
  band No.  band energies     occupation 
      1      -2.5351      2.00000
      2      -1.6199      2.00000
      3       1.4457      2.00000
      4       3.1966      2.00000
      5       6.8872      0.00000
      6       9.6039      0.00000
      7      13.1925      0.00000
      8      13.7802      0.00000
      9      13.8709      0.00000
     10      14.3360      0.00000
     11      20.1587      0.00000
     12      20.4747      0.00000

 k-point    18 :       0.3750    0.3850    0.7400
  band No.  band energies     occupation 
      1      -2.6349      2.00000
      2      -1.5168      2.00000
      3       1.3826      2.00000
      4       3.2631      2.00000
      5       6.9645      0.00000
      6      10.0046      0.00000
      7      12.9162      0.00000
      8      13.4159      0.00000
      9      13.7780      0.00000
     10      14.1645      0.00000
     11      20.2880      0.00000
     12      20.5648      0.00000

 k-point    19 :       0.3750    0.3650    0.7600
  band No.  band energies     occupation 
      1      -2.5500      2.00000
      2      -1.6060      2.00000
      3       1.4505      2.00000
      4       3.1980      2.00000
      5       6.8892      0.00000
      6       9.6059      0.00000
      7      13.1600      0.00000
      8      13.6517      0.00000
      9      13.9946      0.00000
     10      14.3760      0.00000
     11      20.1190      0.00000
     12      20.3975      0.00000


--------------------------------------------------------------------------------------------------------


 soft charge-density along one line, spin component           1
         0         1         2         3         4         5         6         7         8         9
x     8.4741    0.0000    2.0023    0.0000    0.2954    0.0000    0.0758    0.0000    0.0042    0.0000
x    -0.0015   -0.0000   -0.0006   -0.0000   -0.0000   -0.0000    0.0000    0.0000    0.0000   -0.0000
x    -0.0000   -0.0000   -0.0000   -0.0000    0.0000    0.0000
y     8.4741    0.0000    2.0023    0.0000    0.2954    0.0000    0.0758    0.0000    0.0042    0.0000
y    -0.0015   -0.0000   -0.0006   -0.0000   -0.0000   -0.0000    0.0000    0.0000    0.0000   -0.0000
y    -0.0000   -0.0000   -0.0000   -0.0000    0.0000    0.0000
z     8.4741    0.0000    2.0023    0.0000    0.2954    0.0000    0.0758    0.0000    0.0042    0.0000
z    -0.0015   -0.0000   -0.0006   -0.0000   -0.0000   -0.0000    0.0000    0.0000    0.0000   -0.0000
z    -0.0000   -0.0000   -0.0000   -0.0000    0.0000    0.0000
 total charge-density along one line
x     8.0000    0.0000    1.7159    0.0000    0.2957    0.0000    0.1456    0.0000    0.0233   -0.0000
x    -0.0026   -0.0000   -0.0006   -0.0000   -0.0003   -0.0000    0.0000   -0.0000    0.0001   -0.0000
x    -0.0000   -0.0000    0.0000    0.0000   -0.0000   -0.0000    0.0000    0.0000    0.0000    0.0000
x     0.0000    0.0000   -0.0000   -0.0000   -0.0000   -0.0000    0.0000    0.0000   -0.0000   -0.0000
x     0.0000   -0.0000   -0.0000    0.0000   -0.0000    0.0000   -0.0000   -0.0000    0.0000    0.0000
y     8.0000    0.0000    1.7159    0.0000    0.2957    0.0000    0.1456    0.0000    0.0233   -0.0000
y    -0.0026   -0.0000   -0.0006   -0.0000   -0.0003   -0.0000    0.0000   -0.0000    0.0001    0.0000
y    -0.0000    0.0000    0.0000   -0.0000   -0.0000    0.0000    0.0000   -0.0000    0.0000   -0.0000
y     0.0000    0.0000   -0.0000   -0.0000   -0.0000   -0.0000    0.0000   -0.0000   -0.0000   -0.0000
y     0.0000    0.0000   -0.0000    0.0000   -0.0000    0.0000   -0.0000    0.0000    0.0000   -0.0000
z     8.0000    0.0000    1.7159    0.0000    0.2957    0.0000    0.1456   -0.0000    0.0233   -0.0000
z    -0.0026    0.0000   -0.0006    0.0000   -0.0003   -0.0000    0.0000    0.0000    0.0001   -0.0000
z    -0.0000   -0.0000    0.0000   -0.0000   -0.0000    0.0000    0.0000   -0.0000    0.0000    0.0000
z     0.0000    0.0000   -0.0000    0.0000   -0.0000    0.0000   -0.0000   -0.0000   -0.0000    0.0000
z     0.0000    0.0000   -0.0000   -0.0000   -0.0000   -0.0000   -0.0000   -0.0000    0.0000   -0.0000
 
 pseudopotential strength for first ion, spin component:           1
 18.447  25.738   0.000   0.000   0.000   0.000   0.000   0.000
 25.738  35.913   0.000   0.000   0.000   0.000   0.000   0.000
  0.000   0.000   4.182  -0.000  -0.000   7.792  -0.000  -0.000
  0.000   0.000  -0.000   4.182  -0.000  -0.000   7.792  -0.000
  0.000   0.000  -0.000  -0.000   4.182  -0.000  -0.000   7.792
  0.000   0.000   7.792  -0.000  -0.000  14.532  -0.000  -0.000
  0.000   0.000  -0.000   7.792  -0.000  -0.000  14.532  -0.000
  0.000   0.000  -0.000  -0.000   7.792  -0.000  -0.000  14.532
 total augmentation occupancy for first ion, spin component:           1
  4.958  -1.549   0.000  -0.000  -0.000  -0.000  -0.000  -0.000
 -1.549   0.491  -0.000   0.000  -0.000   0.000  -0.000   0.000
 -0.000   0.000   3.117   0.000   0.000  -0.755   0.000  -0.000
  0.000  -0.000  -0.000   3.117   0.000   0.000  -0.755  -0.000
 -0.000  -0.000   0.000   0.000   3.117  -0.000  -0.000  -0.755
 -0.000  -0.000  -0.755  -0.000  -0.000   0.189  -0.000   0.000
  0.000  -0.000  -0.000  -0.755  -0.000   0.000   0.189   0.000
 -0.000   0.000  -0.000  -0.000  -0.755   0.000   0.000   0.189


------------------------ aborting loop because EDIFF is reached ----------------------------------------


 


 total charge     
 
# of ion       s       p       d       tot
------------------------------------------
    1        0.797   0.889   0.000   1.686
    2        0.797   0.889   0.000   1.686
--------------------------------------------------
tot          1.594   1.779   0.000   3.373
 
    CHARGE:  cpu time    0.0152: real time    0.0137
    FORLOC:  cpu time    0.0013: real time    0.0012
    FORNL :  cpu time    0.0192: real time    0.0172
    STRESS:  cpu time    0.0554: real time    0.0499
    FORCOR:  cpu time    0.0316: real time    0.0285
    FORHAR:  cpu time    0.0061: real time    0.0056
    MIXING:  cpu time    0.0014: real time    0.0013
    OFIELD:  cpu time    0.0000: real time    0.0000

  FORCE on cell =-STRESS in cart. coord.  units (eV):
  Direction    XX          YY          ZZ          XY          YZ          ZX
  --------------------------------------------------------------------------------------
  Alpha Z     3.33881     3.33881     3.33881
  Ewald     -75.99608   -75.99616   -75.99607     0.00001    -0.00000     0.00000
  Hartree     4.67353     4.67352     4.67353     0.00000     0.00000     0.00000
  E(xc)     -25.13702   -25.13702   -25.13702    -0.00000    -0.00000    -0.00000
  Local     -28.51485   -28.51484   -28.51483     0.00000     0.00001     0.00001
  n-local    77.06707    80.84364    78.17424    -5.34088    -0.00007    -0.00010
  augment   -12.05445   -12.05445   -12.05446    -0.00000    -0.00001    -0.00001
  Kinetic    52.75523    56.65632    48.28936    -5.51700    -0.00268    -0.00379
  Fock        0.00000     0.00000     0.00000     0.00000     0.00000     0.00000
  -------------------------------------------------------------------------------------
  Total      -2.42814    -2.42814    -2.42813    -0.00000     0.00000    -0.00000
  in kB     -96.46292   -96.46299   -96.46289    -0.00000     0.00000    -0.00000
  external pressure =      -96.46 kB  Pullay stress =        0.00 kB


 VOLUME and BASIS-vectors are now :
 -----------------------------------------------------------------------------
  energy-cutoff  :      600.00
  volume of cell :       40.33
      direct lattice vectors                 reciprocal lattice vectors
     3.333573000  0.000000000  1.924639000     0.299978432 -0.106058350  0.000000000
     1.111191000  3.142924000  1.924639000     0.000000000  0.318175050  0.000000000
     0.000000000  0.000000000  3.849278000    -0.149989216 -0.106058350  0.259788979

  length of vectors
     3.849278403  3.849279412  3.849278000     0.318175161  0.318175050  0.318175190


 FORCES acting on ions
    electron-ion (+dipol)            ewald-force                    non-local-force                 convergence-correction
 -----------------------------------------------------------------------------------------------
   0.501E-05 0.229E-04 0.261E-06   -.892E-05 -.418E-04 -.429E-15   0.661E-16 -.271E-16 -.806E-16   0.306E-08 0.144E-07 -.672E-11
   -.501E-05 -.229E-04 -.261E-06   0.892E-05 0.418E-04 0.408E-15   0.387E-16 -.564E-16 0.269E-15   -.306E-08 -.144E-07 0.672E-11
 -----------------------------------------------------------------------------------------------
   -.107E-13 -.477E-14 0.150E-14   -.341E-15 0.468E-16 -.212E-16   0.105E-15 -.835E-16 0.188E-15   -.254E-14 -.148E-14 -.154E-14
 
 
 POSITION                                       TOTAL-FORCE (eV/Angst)
 -----------------------------------------------------------------------------------
      3.88917      2.75006      6.73624         0.000000     -0.000000      0.000000
      0.55560      0.39287      0.96232        -0.000000      0.000000     -0.000000
 -----------------------------------------------------------------------------------
    total drift:                               -0.000000     -0.000000      0.000000


--------------------------------------------------------------------------------------------------------



  FREE ENERGIE OF THE ION-ELECTRON SYSTEM (eV)
  ---------------------------------------------------
  free  energy   TOTEN  =       -14.67082775 eV

  energy  without entropy=      -14.67082775  energy(sigma->0) =      -14.67082775
 


--------------------------------------------------------------------------------------------------------


    POTLOK:  cpu time    0.0337: real time    0.0303


--------------------------------------------------------------------------------------------------------


 writing wavefunctions
     LOOP+:  cpu time    3.9362: real time    3.5441
    4ORBIT:  cpu time    0.0000: real time    0.0000
 


 total charge     
 
# of ion       s       p       d       tot
------------------------------------------
    1        0.797   0.889   0.000   1.686
    2        0.797   0.889   0.000   1.686
--------------------------------------------------
tot          1.594   1.779   0.000   3.373
 

 total amount of memory used by VASP MPI-rank0    42691. kBytes
=======================================================================

   base      :      30000. kBytes
   nonl-proj :       1684. kBytes
   grid      :       6018. kBytes
   one-center:          6. kBytes
   wavefun   :       4983. kBytes
 
  
  
 General timing and accounting informations for this job:
 ========================================================
  
                  Total CPU time used (sec):        4.200
                            User time (sec):        4.144
                          System time (sec):        0.057
                         Elapsed time (sec):        3.787
  
                   Maximum memory used (kb):       30936.
                   Average memory used (kb):           0.
  
                          Minor page faults:        15315
                          Major page faults:           12
                 Voluntary context switches:           27
