 vasp.5.4.4.18Apr17-6-g9f103f2a35 (build Sep 03 2019 17:22:03) complex          
  
 executed on             LinuxIFC date 2024.12.15  15:55:52
 serial version


--------------------------------------------------------------------------------------------------------


 INCAR:
 POTCAR:    PAW_PBE Si 05Jan2001                  
 POTCAR:    PAW_PBE Si 05Jan2001                  
   SHA256 =  79d9987ad8750f624c4d6acb2a16d13abf6a777132adc04dc6c8399be72b42bb Si
   COPYR  = (c) Copyright 05Jan2001 Georg Kresse                                
   COPYR  = This file is part of the software VASP. Any use, copying, and all ot
   COPYR  = If you do not have a valid VASP license, you may not use, copy or di
   VRHFIN =Si: s2p2                                                             
   LEXCH  = PE                                                                  
   EATOM  =   103.0669 eV,    7.5752 Ry                                         
                                                                                
   TITEL  = PAW_PBE Si 05Jan2001                                                
   LULTRA =        F    use ultrasoft PP ?                                      
   IUNSCR =        1    unscreen: 0-lin 1-nonlin 2-no                           
   RPACOR =    1.500    partial core radius                                     
   POMASS =   28.085; ZVAL   =    4.000    mass and valenz                      
   RCORE  =    1.900    outmost cutoff radius                                   
   RWIGS  =    2.480; RWIGS  =    1.312    wigner-seitz radius (au A)           
   ENMAX  =  245.345; ENMIN  =  184.009 eV                                      
   ICORE  =        2    local potential                                         
   LCOR   =        T    correct aug charges                                     
   LPAW   =        T    paw PP                                                  
   EAUG   =  322.069                                                            
   DEXC   =    0.000                                                            
   RMAX   =    1.950    core radius for proj-oper                               
   RAUG   =    1.300    factor for augmentation sphere                          
   RDEP   =    1.993    radius for radial grids                                 
   RDEPT  =    1.837    core radius for aug-charge                              
                                                                                
   Atomic configuration                                                         
    6 entries                                                                   
     n  l   j            E        occ.                                          
     1  0  0.50     -1785.8828   2.0000                                         
     2  0  0.50      -139.4969   2.0000                                         
     2  1  1.50       -95.5546   6.0000                                         
     3  0  0.50       -10.8127   2.0000                                         
     3  1  0.50        -4.0811   2.0000                                         
     3  2  1.50        -4.0817   0.0000                                         
   Description                                                                  
     l       E           TYP  RCUT    TYP  RCUT                                 
     0    -10.8127223     23  1.900                                             
     0     -7.6451159     23  1.900                                             
     1     -4.0811372     23  1.900                                             
     1      2.4879257     23  1.900                                             
     2     -4.0817478      7  1.900                                             
  local pseudopotential read in
  partial core-charges read in
  partial kinetic energy density read in
  atomic valenz-charges read in
  non local Contribution for L=           0  read in
    real space projection operators read in
  non local Contribution for L=           0  read in
    real space projection operators read in
  non local Contribution for L=           1  read in
    real space projection operators read in
  non local Contribution for L=           1  read in
    real space projection operators read in
    PAW grid and wavefunctions read in
 
   number of l-projection  operators is LMAX  =           4
   number of lm-projection operators is LMMAX =           8
 
  PAW_PBE Si 05Jan2001                  :
 energy of atom  1       EATOM= -103.0669
 kinetic energy error for atom=    0.0003 (will be added to EATOM!!)
 
 
 POSCAR: i2a=[Si] ; Si                           
  positions in direct lattice
  No initial velocities read in
 exchange correlation table for  LEXCH =        8
   RHO(1)=    0.500       N(1)  =     2000
   RHO(2)=  100.500       N(2)  =     4000
 


--------------------------------------------------------------------------------------------------------


 ion  position               nearest neighbor table
   1  0.875  0.875  0.875-   2 2.36   2 2.36   2 2.36   2 2.36
   2  0.125  0.125  0.125-   1 2.36   1 2.36   1 2.36   1 2.36
 
  LATTYP: Found a face centered cubic cell.
 ALAT       =     5.4437011529
  
  Lattice vectors:
  
 A1 = (   3.3335730000,   0.0000000000,   1.9246390000)
 A2 = (   1.1111910000,   3.1429240000,   1.9246390000)
 A3 = (   0.0000000000,   0.0000000000,   3.8492780000)


Analysis of symmetry for initial positions (statically):
=====================================================================
 Subroutine PRICEL returns:
 Original cell was already a primitive cell.
 

 Routine SETGRP: Setting up the symmetry group for a 
 face centered cubic supercell.


 Subroutine GETGRP returns: Found 48 space group operations
 (whereof 12 operations were pure point group operations)
 out of a pool of 48 trial point group operations.


The static configuration has the point symmetry D_3d.
 The point group associated with its full space group is O_h .


Analysis of symmetry for dynamics (positions and initial velocities):
=====================================================================
 Subroutine PRICEL returns:
 Original cell was already a primitive cell.
 

 Routine SETGRP: Setting up the symmetry group for a 
 face centered cubic supercell.


 Subroutine GETGRP returns: Found 48 space group operations
 (whereof 12 operations were pure point group operations)
 out of a pool of 48 trial point group operations.


The dynamic configuration has the point symmetry D_3d.
 The point group associated with its full space group is O_h .


 Subroutine INISYM returns: Found 48 space group operations
 (whereof 12 operations are pure point group operations),
 and found     1 'primitive' translations

 
 
 KPOINTS: Explicit k-point list                   
  k-points in reciprocal lattice
Space group operators:
 irot       det(A)        alpha          n_x          n_y          n_z        tau_x        tau_y        tau_z
    1     1.000000     0.000000     1.000000     0.000000     0.000000     0.000000     0.000000     0.000000
    2    -1.000000     0.000000     1.000000     0.000000     0.000000     0.000000     0.000000     0.000000
    3     1.000000   120.000000    -0.471404    -0.333333    -0.816497     0.000000     0.000000     0.000000
    4    -1.000000   120.000000    -0.471404    -0.333333    -0.816497     0.000000     0.000000     0.000000
    5     1.000000   120.000000     0.471405     0.333333     0.816496     0.000000     0.000000     0.000000
    6    -1.000000   120.000000     0.471405     0.333333     0.816496     0.000000     0.000000     0.000000
    7     1.000000   180.000000     0.288675     0.816496    -0.500000     0.000000     0.000000     0.000000
    8    -1.000000   180.000000     0.288675     0.816496    -0.500000     0.000000     0.000000     0.000000
    9     1.000000   180.000000     0.577350    -0.816496     0.000000     0.000000     0.000000     0.000000
   10    -1.000000   180.000000     0.577350    -0.816496     0.000000     0.000000     0.000000     0.000000
   11     1.000000   180.000000     0.866025    -0.000000    -0.500000     0.000000     0.000000     0.000000
   12    -1.000000   180.000000     0.866025    -0.000000    -0.500000     0.000000     0.000000     0.000000
   13     1.000000    90.000000    -0.816497    -0.577350    -0.000000     0.500000     0.000000     0.000000
   14    -1.000000    90.000000    -0.816497    -0.577350    -0.000000     0.500000     0.000000     0.000000
   15     1.000000   180.000000     0.866025    -0.000000     0.500000     0.500000     0.000000     0.000000
   16    -1.000000   180.000000     0.866025    -0.000000     0.500000     0.500000     0.000000     0.000000
   17     1.000000    90.000000     0.408248    -0.577350     0.707107     0.500000     0.000000     0.000000
   18    -1.000000    90.000000     0.408248    -0.577350     0.707107     0.500000     0.000000     0.000000
   19     1.000000   180.000000     0.816497     0.577350     0.000000     0.000000     0.000000     0.500000
   20    -1.000000   180.000000     0.816497     0.577350     0.000000     0.000000     0.000000     0.500000
   21     1.000000   120.000000     0.942809    -0.333333     0.000000     0.000000     0.000000     0.500000
   22    -1.000000   120.000000     0.942809    -0.333333     0.000000     0.000000     0.000000     0.500000
   23     1.000000   120.000000     0.000000    -1.000000     0.000000     0.000000     0.000000     0.500000
   24    -1.000000   120.000000     0.000000    -1.000000     0.000000     0.000000     0.000000     0.500000
   25     1.000000    90.000000     0.816497     0.577350    -0.000000     0.000000     0.500000     0.000000
   26    -1.000000    90.000000     0.816497     0.577350    -0.000000     0.000000     0.500000     0.000000
   27     1.000000    90.000000     0.408249    -0.577350    -0.707107     0.000000     0.500000     0.000000
   28    -1.000000    90.000000     0.408249    -0.577350    -0.707107     0.000000     0.500000     0.000000
   29     1.000000   179.999999     0.288675     0.816496     0.500000     0.000000     0.500000     0.000000
   30    -1.000000   179.999999     0.288675     0.816496     0.500000     0.000000     0.500000     0.000000
   31     1.000000   120.000000     0.000000     1.000000     0.000000     0.500000     0.000000     0.000000
   32    -1.000000   120.000000     0.000000     1.000000     0.000000     0.500000     0.000000     0.000000
   33     1.000000   120.000000     0.471404     0.333333    -0.816497     0.500000     0.000000     0.000000
   34    -1.000000   120.000000     0.471404     0.333333    -0.816497     0.500000     0.000000     0.000000
   35     1.000000   180.000000    -0.408248     0.577350     0.707107     0.500000     0.000000     0.000000
   36    -1.000000   180.000000    -0.408248     0.577350     0.707107     0.500000     0.000000     0.000000
   37     1.000000    90.000000    -0.408249     0.577350    -0.707107     0.000000     0.000000     0.500000
   38    -1.000000    90.000000    -0.408249     0.577350    -0.707107     0.000000     0.000000     0.500000
   39     1.000000   180.000000    -0.000000     0.000000     1.000000     0.000000     0.000000     0.500000
   40    -1.000000   180.000000    -0.000000     0.000000     1.000000     0.000000     0.000000     0.500000
   41     1.000000    90.000000    -0.408248     0.577350     0.707107     0.000000     0.000000     0.500000
   42    -1.000000    90.000000    -0.408248     0.577350     0.707107     0.000000     0.000000     0.500000
   43     1.000000   120.000000    -0.942809     0.333333     0.000000     0.000000     0.500000     0.000000
   44    -1.000000   120.000000    -0.942809     0.333333     0.000000     0.000000     0.500000     0.000000
   45     1.000000   180.000000    -0.408248     0.577350    -0.707107     0.000000     0.500000     0.000000
   46    -1.000000   180.000000    -0.408248     0.577350    -0.707107     0.000000     0.500000     0.000000
   47     1.000000   120.000000    -0.471405    -0.333333     0.816496     0.000000     0.500000     0.000000
   48    -1.000000   120.000000    -0.471405    -0.333333     0.816496     0.000000     0.500000     0.000000


--------------------------------------------------------------------------------------------------------




 Dimension of arrays:
   k-points           NKPTS =     19   k-points in BZ     NKDIM =     19   number of bands    NBANDS=     12
   number of dos      NEDOS =    301   number of ions     NIONS =      2
   non local maximal  LDIM  =      4   non local SUM 2l+1 LMDIM =      8
   total plane-waves  NPLWV =  13824
   max r-space proj   IRMAX =      1   max aug-charges    IRDMAX=  11659
   dimension x,y,z NGX =    24 NGY =   24 NGZ =   24
   dimension x,y,z NGXF=    48 NGYF=   48 NGZF=   48
   support grid    NGXF=    48 NGYF=   48 NGZF=   48
   ions per type =               2
   NGX,Y,Z   is equivalent  to a cutoff of  10.37, 10.37, 10.37 a.u.
   NGXF,Y,Z  is equivalent  to a cutoff of  20.73, 20.73, 20.73 a.u.

 SYSTEM =  auto Fully inherited from the final st  
 POSCAR =  i2a=[Si] ; Si                           

 Startparameter for this run:
   NWRITE =      2    write-flag & timer
   PREC   = normal    normal or accurate (medium, high low for compatibility)
   ISTART =      0    job   : 0-new  1-cont  2-samecut
   ICHARG =      2    charge: 1-file 2-atom 10-const
   ISPIN  =      1    spin polarized calculation?
   LNONCOLLINEAR =      F non collinear calculations
   LSORBIT =      F    spin-orbit coupling
   INIWAV =      1    electr: 0-lowe 1-rand  2-diag
   LASPH  =      F    aspherical Exc in radial PAW
   METAGGA=      F    non-selfconsistent MetaGGA calc.

 Electronic Relaxation 1
   ENCUT  =  600.0 eV  44.10 Ry    6.64 a.u.   7.69  7.69  7.69*2*pi/ulx,y,z
   ENINI  =  600.0     initial cutoff
   ENAUG  =  700.0 eV  augmentation charge cutoff
   NELM   =     60;   NELMIN=  2; NELMDL= -5     # of ELM steps 
   EDIFF  = 0.1E-04   stopping-criterion for ELM
   LREAL  =      F    real-space projection
   NLSPLINE    = F    spline interpolate recip. space projectors
   LCOMPAT=      F    compatible to vasp.4.4
   GGA_COMPAT  = T    GGA compatible to vasp.4.4-vasp.4.6
   LMAXPAW     = -100 max onsite density
   LMAXMIX     =    2 max onsite mixed and CHGCAR
   VOSKOWN=      0    Vosko Wilk Nusair interpolation
   ROPT   =    0.00000
 Ionic relaxation
   EDIFFG = 0.1E-03   stopping-criterion for IOM
   NSW    =      0    number of steps for IOM
   NBLOCK =      1;   KBLOCK =      1    inner block; outer block 
   IBRION =     -1    ionic relax: 0-MD 1-quasi-New 2-CG
   NFREE  =      0    steps in history (QN), initial steepest desc. (CG)
   ISIF   =      2    stress and relaxation
   IWAVPR =      0    prediction:  0-non 1-charg 2-wave 3-comb
   ISYM   =      2    0-nonsym 1-usesym 2-fastsym
   LCORR  =      T    Harris-Foulkes like correction to forces

   POTIM  = 0.5000    time-step for ionic-motion
   TEIN   =    0.0    initial temperature
   TEBEG  =    0.0;   TEEND  =   0.0 temperature during run
   SMASS  =  -3.00    Nose mass-parameter (am)
   estimated Nose-frequenzy (Omega)   =  0.10E-29 period in steps =****** mass=  -0.339E-27a.u.
   SCALEE = 1.0000    scale energy and forces
   NPACO  =    256;   APACO  = 16.0  distance and # of slots for P.C.
   PSTRESS=    0.0 pullay stress

  Mass of Ions in am
   POMASS =  28.09
  Ionic Valenz
   ZVAL   =   4.00
  Atomic Wigner-Seitz radii
   RWIGS  =  -1.00
  virtual crystal weights 
   VCA    =   1.00
   NELECT =       8.0000    total number of electrons
   NUPDOWN=      -1.0000    fix difference up-down

 DOS related values:
   EMIN   =  10.00;   EMAX   =-10.00  energy-range for DOS
   EFERMI =   0.00
   ISMEAR =     0;   SIGMA  =   0.20  broadening in eV -4-tet -1-fermi 0-gaus

 Electronic relaxation 2 (details)
   IALGO  =     38    algorithm
   LDIAG  =      T    sub-space diagonalisation (order eigenvalues)
   LSUBROT=      F    optimize rotation matrix (better conditioning)
   TURBO    =      0    0=normal 1=particle mesh
   IRESTART =      0    0=no restart 2=restart with 2 vectors
   NREBOOT  =      0    no. of reboots
   NMIN     =      0    reboot dimension
   EREF     =   0.00    reference energy to select bands
   IMIX   =      4    mixing-type and parameters
     AMIX     =   0.40;   BMIX     =  1.00
     AMIX_MAG =   1.60;   BMIX_MAG =  1.00
     AMIN     =   0.10
     WC   =   100.;   INIMIX=   1;  MIXPRE=   1;  MAXMIX= -45

 Intra band minimization:
   WEIMIN = 0.0000     energy-eigenvalue tresh-hold
   EBREAK =  0.21E-06  absolut break condition
   DEPER  =   0.30     relativ break condition  

   TIME   =   0.40     timestep for ELM

  volume/ion in A,a.u.               =      20.16       136.08
  Fermi-wavevector in a.u.,A,eV,Ry     =   0.954766  1.804247 12.402783  0.911579
  Thomas-Fermi vector in A             =   2.083543
 
 Write flags
   LWAVE        =      T    write WAVECAR
   LDOWNSAMPLE  =      F    k-point downsampling of WAVECAR
   LCHARG       =      T    write CHGCAR
   LVTOT        =      F    write LOCPOT, total local potential
   LVHAR        =      F    write LOCPOT, Hartree potential only
   LELF         =      F    write electronic localiz. function (ELF)
   LORBIT       =     11    0 simple, 1 ext, 2 COOP (PROOUT), +10 PAW based schemes


 Dipole corrections
   LMONO  =      F    monopole corrections only (constant potential shift)
   LDIPOL =      F    correct potential (dipole corrections)
   IDIPOL =      0    1-x, 2-y, 3-z, 4-all directions 
   EPSILON=  1.0000000 bulk dielectric constant

 Exchange correlation treatment:
   GGA     =    --    GGA type
   LEXCH   =     8    internal setting for exchange type
   VOSKOWN=      0    Vosko Wilk Nusair interpolation
   LHFCALC =     F    Hartree Fock is set to
   LHFONE  =     F    Hartree Fock one center treatment
   AEXX    =    0.0000 exact exchange contribution

 Linear response parameters
   LEPSILON=     F    determine dielectric tensor
   LRPA    =     F    only Hartree local field effects (RPA)
   LNABLA  =     F    use nabla operator in PAW spheres
   LVEL    =     F    velocity operator in full k-point grid
   LINTERFAST=   F  fast interpolation
   KINTER  =     0    interpolate to denser k-point grid
   CSHIFT  =0.1000    complex shift for real part using Kramers Kronig
   OMEGAMAX=  -1.0    maximum frequency
   DEG_THRESHOLD= 0.2000000E-02 threshold for treating states as degnerate
   RTIME   =   -0.100 relaxation time in fs
  (WPLASMAI=    0.000 imaginary part of plasma frequency in eV, 0.658/RTIME)
   DFIELD  = 0.0000000 0.0000000 0.0000000 field for delta impulse in time
 
 Orbital magnetization related:
   ORBITALMAG=     F  switch on orbital magnetization
   LCHIMAG   =     F  perturbation theory with respect to B field
   DQ        =  0.001000  dq finite difference perturbation B field
   LLRAUG    =     F  two centre corrections for induced B field



--------------------------------------------------------------------------------------------------------


 Static calculation
 charge density and potential will be updated during run
 non-spin polarized calculation
 Variant of blocked Davidson
 Davidson routine will perform the subspace rotation
 perform sub-space diagonalisation
    after iterative eigenvector-optimisation
 modified Broyden-mixing scheme, WC =      100.0
 initial mixing is a Kerker type mixing with AMIX =  0.4000 and BMIX =      1.0000
 Hartree-type preconditioning will be used
 using additional bands            8
 reciprocal scheme for non local part
 use partial core corrections
 calculate Harris-corrections to forces 
   (improved forces if not selfconsistent)
 use gradient corrections 
 use of overlap-Matrix (Vanderbilt PP)
 Gauss-broadening in eV      SIGMA  =   0.20


--------------------------------------------------------------------------------------------------------


  energy-cutoff  :      600.00
  volume of cell :       40.33
      direct lattice vectors                 reciprocal lattice vectors
     3.333573000  0.000000000  1.924639000     0.299978432 -0.106058350  0.000000000
     1.111191000  3.142924000  1.924639000     0.000000000  0.318175050  0.000000000
     0.000000000  0.000000000  3.849278000    -0.149989216 -0.106058350  0.259788979

  length of vectors
     3.849278403  3.849279412  3.849278000     0.318175161  0.318175050  0.318175190


 
 k-points in units of 2pi/SCALE and weight: Explicit k-point list                   
   0.07499461 -0.10605835  0.12989449       0.053
   0.07199482 -0.10499777  0.12989449       0.053
   0.07799439 -0.10711893  0.12989449       0.053
   0.07499461 -0.10924010  0.12989449       0.053
   0.07499461 -0.10287660  0.12989449       0.053
   0.07649450 -0.10499777  0.12729660       0.053
   0.07349472 -0.10711893  0.13249238       0.053
   0.07199482 -0.10817952  0.12989449       0.053
   0.07799439 -0.10393718  0.12989449       0.053
   0.07799439 -0.11030068  0.12989449       0.053
   0.07199482 -0.10181602  0.12989449       0.053
   0.07349472 -0.10393718  0.12729660       0.053
   0.07649450 -0.10817952  0.13249238       0.053
   0.07949428 -0.10605835  0.12729660       0.053
   0.07049493 -0.10605835  0.13249238       0.053
   0.07649450 -0.10817952  0.12729660       0.053
   0.07349472 -0.10393718  0.13249238       0.053
   0.07649450 -0.10181602  0.12729660       0.053
   0.07349472 -0.11030068  0.13249238       0.053
 
 k-points in reciprocal lattice and weights: Explicit k-point list                   
   0.50000000  0.00000000  0.50000000       0.053
   0.49000000  0.00000000  0.50000000       0.053
   0.51000000  0.00000000  0.50000000       0.053
   0.50000000 -0.01000000  0.50000000       0.053
   0.50000000  0.01000000  0.50000000       0.053
   0.50000000  0.00000000  0.49000000       0.053
   0.50000000  0.00000000  0.51000000       0.053
   0.49000000 -0.01000000  0.50000000       0.053
   0.51000000  0.01000000  0.50000000       0.053
   0.51000000 -0.01000000  0.50000000       0.053
   0.49000000  0.01000000  0.50000000       0.053
   0.49000000  0.00000000  0.49000000       0.053
   0.51000000  0.00000000  0.51000000       0.053
   0.51000000  0.00000000  0.49000000       0.053
   0.49000000  0.00000000  0.51000000       0.053
   0.50000000 -0.01000000  0.49000000       0.053
   0.50000000  0.01000000  0.51000000       0.053
   0.50000000  0.01000000  0.49000000       0.053
   0.50000000 -0.01000000  0.51000000       0.053
 
 position of ions in fractional coordinates (direct lattice) 
   0.87500000  0.87500000  0.87500000
   0.12500000  0.12500000  0.12500000
 
 position of ions in cartesian coordinates  (Angst):
   3.88916850  2.75005850  6.73623650
   0.55559550  0.39286550  0.96231950
 


--------------------------------------------------------------------------------------------------------


 k-point  1 :   0.5000 0.0000 0.5000  plane waves:    1362
 k-point  2 :   0.4900 0.0000 0.5000  plane waves:    1357
 k-point  3 :   0.5100 0.0000 0.5000  plane waves:    1357
 k-point  4 :   0.5000-0.0100 0.5000  plane waves:    1357
 k-point  5 :   0.5000 0.0100 0.5000  plane waves:    1357
 k-point  6 :   0.5000 0.0000 0.4900  plane waves:    1357
 k-point  7 :   0.5000 0.0000 0.5100  plane waves:    1357
 k-point  8 :   0.4900-0.0100 0.5000  plane waves:    1358
 k-point  9 :   0.5100 0.0100 0.5000  plane waves:    1358
 k-point 10 :   0.5100-0.0100 0.5000  plane waves:    1354
 k-point 11 :   0.4900 0.0100 0.5000  plane waves:    1354
 k-point 12 :   0.4900 0.0000 0.4900  plane waves:    1350
 k-point 13 :   0.5100 0.0000 0.5100  plane waves:    1350
 k-point 14 :   0.5100 0.0000 0.4900  plane waves:    1352
 k-point 15 :   0.4900 0.0000 0.5100  plane waves:    1352
 k-point 16 :   0.5000-0.0100 0.4900  plane waves:    1358
 k-point 17 :   0.5000 0.0100 0.5100  plane waves:    1358
 k-point 18 :   0.5000 0.0100 0.4900  plane waves:    1354
 k-point 19 :   0.5000-0.0100 0.5100  plane waves:    1354

 maximum number of plane-waves:      1362
 maximum index in each direction: 
   IXMAX=    7   IYMAX=    7   IZMAX=    7
   IXMIN=   -8   IYMIN=   -7   IZMIN=   -8


 total amount of memory used by VASP MPI-rank0    42749. kBytes
=======================================================================

   base      :      30000. kBytes
   nonl-proj :       1699. kBytes
   grid      :       6018. kBytes
   one-center:          6. kBytes
   wavefun   :       5026. kBytes
 
     INWAV:  cpu time    0.0000: real time    0.0000
 Broyden mixing: mesh for mixing (old mesh)
   NGX = 15   NGY = 15   NGZ = 15
  (NGX  = 48   NGY  = 48   NGZ  = 48)
  gives a total of   3375 points

 initial charge density was supplied:
 charge density of overlapping atoms calculated
 number of electron       8.0000000 magnetization 
 keeping initial charge density in first step


--------------------------------------------------------------------------------------------------------


 Maximum index for augmentation-charges        11057 (set IRDMAX)


--------------------------------------------------------------------------------------------------------


 First call to EWALD:  gamma=   0.517
 Maximum number of real-space cells 3x 3x 3
 Maximum number of reciprocal cells 3x 3x 3

    FEWALD:  cpu time    0.0010: real time    0.0009


--------------------------------------- Iteration      1(   1)  ---------------------------------------


    POTLOK:  cpu time    0.0330: real time    0.0300
    SETDIJ:  cpu time    0.0020: real time    0.0018
     EDDAV:  cpu time    0.2928: real time    0.2637
       DOS:  cpu time    0.0008: real time    0.0007
    --------------------------------------------
      LOOP:  cpu time    0.3286: real time    0.2962

 eigenvalue-minimisations  :   456
 total energy-change (2. order) : 0.3591789E+01  (-0.3364446E+03)
 number of electron       8.0000000 magnetization 
 augmentation part        8.0000000 magnetization 

 Free energy of the ion-electron system (eV)
  ---------------------------------------------------
  alpha Z        PSCENC =         3.33880741
  Ewald energy   TEWEN  =      -227.98820643
  -Hartree energ DENC   =       -11.11484531
  -exchange      EXHF   =         0.00000000
  -V(xc)+E(xc)   XCENC  =       -18.63153637
  PAW double counting   =       176.24759923     -141.06103558
  entropy T*S    EENTRO =        -0.00990429
  eigenvalues    EBANDS =        16.67779083
  atomic energy  EATOM  =       206.13311910
  Solvation  Ediel_sol  =         0.00000000
  ---------------------------------------------------
  free energy    TOTEN  =         3.59178858 eV

  energy without entropy =        3.60169287  energy(sigma->0) =        3.59674073


--------------------------------------------------------------------------------------------------------




--------------------------------------- Iteration      1(   2)  ---------------------------------------


     EDDAV:  cpu time    0.3536: real time    0.3185
       DOS:  cpu time    0.0007: real time    0.0006
    --------------------------------------------
      LOOP:  cpu time    0.3543: real time    0.3191

 eigenvalue-minimisations  :   596
 total energy-change (2. order) :-0.1642031E+02  (-0.1618171E+02)
 number of electron       8.0000000 magnetization 
 augmentation part        8.0000000 magnetization 

 Free energy of the ion-electron system (eV)
  ---------------------------------------------------
  alpha Z        PSCENC =         3.33880741
  Ewald energy   TEWEN  =      -227.98820643
  -Hartree energ DENC   =       -11.11484531
  -exchange      EXHF   =         0.00000000
  -V(xc)+E(xc)   XCENC  =       -18.63153637
  PAW double counting   =       176.24759923     -141.06103558
  entropy T*S    EENTRO =        -0.00000000
  eigenvalues    EBANDS =         0.24757380
  atomic energy  EATOM  =       206.13311910
  Solvation  Ediel_sol  =         0.00000000
  ---------------------------------------------------
  free energy    TOTEN  =       -12.82852416 eV

  energy without entropy =      -12.82852416  energy(sigma->0) =      -12.82852416


--------------------------------------------------------------------------------------------------------




--------------------------------------- Iteration      1(   3)  ---------------------------------------


     EDDAV:  cpu time    0.4367: real time    0.3930
       DOS:  cpu time    0.0007: real time    0.0007
    --------------------------------------------
      LOOP:  cpu time    0.4374: real time    0.3937

 eigenvalue-minimisations  :   756
 total energy-change (2. order) :-0.3980435E+00  (-0.3976427E+00)
 number of electron       8.0000000 magnetization 
 augmentation part        8.0000000 magnetization 

 Free energy of the ion-electron system (eV)
  ---------------------------------------------------
  alpha Z        PSCENC =         3.33880741
  Ewald energy   TEWEN  =      -227.98820643
  -Hartree energ DENC   =       -11.11484531
  -exchange      EXHF   =         0.00000000
  -V(xc)+E(xc)   XCENC  =       -18.63153637
  PAW double counting   =       176.24759923     -141.06103558
  entropy T*S    EENTRO =        -0.00000000
  eigenvalues    EBANDS =        -0.15046968
  atomic energy  EATOM  =       206.13311910
  Solvation  Ediel_sol  =         0.00000000
  ---------------------------------------------------
  free energy    TOTEN  =       -13.22656763 eV

  energy without entropy =      -13.22656763  energy(sigma->0) =      -13.22656763


--------------------------------------------------------------------------------------------------------




--------------------------------------- Iteration      1(   4)  ---------------------------------------


     EDDAV:  cpu time    0.4040: real time    0.3636
       DOS:  cpu time    0.0007: real time    0.0007
    --------------------------------------------
      LOOP:  cpu time    0.4048: real time    0.3643

 eigenvalue-minimisations  :   696
 total energy-change (2. order) :-0.1186299E-02  (-0.1186255E-02)
 number of electron       8.0000000 magnetization 
 augmentation part        8.0000000 magnetization 

 Free energy of the ion-electron system (eV)
  ---------------------------------------------------
  alpha Z        PSCENC =         3.33880741
  Ewald energy   TEWEN  =      -227.98820643
  -Hartree energ DENC   =       -11.11484531
  -exchange      EXHF   =         0.00000000
  -V(xc)+E(xc)   XCENC  =       -18.63153637
  PAW double counting   =       176.24759923     -141.06103558
  entropy T*S    EENTRO =        -0.00000000
  eigenvalues    EBANDS =        -0.15165598
  atomic energy  EATOM  =       206.13311910
  Solvation  Ediel_sol  =         0.00000000
  ---------------------------------------------------
  free energy    TOTEN  =       -13.22775393 eV

  energy without entropy =      -13.22775393  energy(sigma->0) =      -13.22775393


--------------------------------------------------------------------------------------------------------




--------------------------------------- Iteration      1(   5)  ---------------------------------------


     EDDAV:  cpu time    0.3870: real time    0.3486
       DOS:  cpu time    0.0007: real time    0.0006
    CHARGE:  cpu time    0.0156: real time    0.0140
    MIXING:  cpu time    0.0012: real time    0.0010
    --------------------------------------------
      LOOP:  cpu time    0.4045: real time    0.3643

 eigenvalue-minimisations  :   660
 total energy-change (2. order) :-0.6988575E-06  (-0.6987488E-06)
 number of electron       7.9999999 magnetization 
 augmentation part       -0.4827873 magnetization 

 Broyden mixing:
  rms(total) = 0.50053E+00    rms(broyden)= 0.50053E+00
  rms(prec ) = 0.10233E+01
  weight for this iteration     100.00

 Free energy of the ion-electron system (eV)
  ---------------------------------------------------
  alpha Z        PSCENC =         3.33880741
  Ewald energy   TEWEN  =      -227.98820643
  -Hartree energ DENC   =       -11.11484531
  -exchange      EXHF   =         0.00000000
  -V(xc)+E(xc)   XCENC  =       -18.63153637
  PAW double counting   =       176.24759923     -141.06103558
  entropy T*S    EENTRO =        -0.00000000
  eigenvalues    EBANDS =        -0.15165668
  atomic energy  EATOM  =       206.13311910
  Solvation  Ediel_sol  =         0.00000000
  ---------------------------------------------------
  free energy    TOTEN  =       -13.22775463 eV

  energy without entropy =      -13.22775463  energy(sigma->0) =      -13.22775463


--------------------------------------------------------------------------------------------------------




--------------------------------------- Iteration      1(   6)  ---------------------------------------


    POTLOK:  cpu time    0.0314: real time    0.0283
    SETDIJ:  cpu time    0.0020: real time    0.0018
     EDDAV:  cpu time    0.3354: real time    0.3019
       DOS:  cpu time    0.0007: real time    0.0006
    CHARGE:  cpu time    0.0152: real time    0.0137
    MIXING:  cpu time    0.0013: real time    0.0011
    --------------------------------------------
      LOOP:  cpu time    0.3860: real time    0.3475

 eigenvalue-minimisations  :   560
 total energy-change (2. order) : 0.1534146E+00  (-0.7294705E-02)
 number of electron       7.9999999 magnetization 
 augmentation part       -0.4751363 magnetization 

 Broyden mixing:
  rms(total) = 0.30939E+00    rms(broyden)= 0.30939E+00
  rms(prec ) = 0.61490E+00
  weight for this iteration     100.00

 eigenvalues of (default mixing * dielectric matrix)
  average eigenvalue GAMMA=   2.6005
  2.6005

 Free energy of the ion-electron system (eV)
  ---------------------------------------------------
  alpha Z        PSCENC =         3.33880741
  Ewald energy   TEWEN  =      -227.98820643
  -Hartree energ DENC   =       -12.89089585
  -exchange      EXHF   =         0.00000000
  -V(xc)+E(xc)   XCENC  =       -18.36445542
  PAW double counting   =       393.96469117     -358.90676031
  entropy T*S    EENTRO =        -0.00000000
  eigenvalues    EBANDS =         1.63936033
  atomic energy  EATOM  =       206.13311910
  Solvation  Ediel_sol  =         0.00000000
  ---------------------------------------------------
  free energy    TOTEN  =       -13.07433999 eV

  energy without entropy =      -13.07433999  energy(sigma->0) =      -13.07433999


--------------------------------------------------------------------------------------------------------




--------------------------------------- Iteration      1(   7)  ---------------------------------------


    POTLOK:  cpu time    0.0315: real time    0.0283
    SETDIJ:  cpu time    0.0020: real time    0.0018
     EDDAV:  cpu time    0.3199: real time    0.2879
       DOS:  cpu time    0.0007: real time    0.0006
    CHARGE:  cpu time    0.0151: real time    0.0136
    MIXING:  cpu time    0.0013: real time    0.0011
    --------------------------------------------
      LOOP:  cpu time    0.3704: real time    0.3333

 eigenvalue-minimisations  :   524
 total energy-change (2. order) : 0.3808762E-01  (-0.1497755E-01)
 number of electron       7.9999999 magnetization 
 augmentation part       -0.4656071 magnetization 

 Broyden mixing:
  rms(total) = 0.23451E-01    rms(broyden)= 0.23451E-01
  rms(prec ) = 0.54187E-01
  weight for this iteration     100.00

 eigenvalues of (default mixing * dielectric matrix)
  average eigenvalue GAMMA=   2.1239
  1.9231  2.3247

 Free energy of the ion-electron system (eV)
  ---------------------------------------------------
  alpha Z        PSCENC =         3.33880741
  Ewald energy   TEWEN  =      -227.98820643
  -Hartree energ DENC   =       -15.88302887
  -exchange      EXHF   =         0.00000000
  -V(xc)+E(xc)   XCENC  =       -17.90895837
  PAW double counting   =       939.58912959     -904.70342408
  entropy T*S    EENTRO =        -0.00000000
  eigenvalues    EBANDS =         4.38630928
  atomic energy  EATOM  =       206.13311910
  Solvation  Ediel_sol  =         0.00000000
  ---------------------------------------------------
  free energy    TOTEN  =       -13.03625237 eV

  energy without entropy =      -13.03625237  energy(sigma->0) =      -13.03625237


--------------------------------------------------------------------------------------------------------




--------------------------------------- Iteration      1(   8)  ---------------------------------------


    POTLOK:  cpu time    0.0312: real time    0.0281
    SETDIJ:  cpu time    0.0020: real time    0.0018
     EDDAV:  cpu time    0.3388: real time    0.3049
       DOS:  cpu time    0.0008: real time    0.0007
    CHARGE:  cpu time    0.0153: real time    0.0137
    MIXING:  cpu time    0.0014: real time    0.0012
    --------------------------------------------
      LOOP:  cpu time    0.3894: real time    0.3505

 eigenvalue-minimisations  :   568
 total energy-change (2. order) :-0.6244666E-02  (-0.1205699E-02)
 number of electron       7.9999999 magnetization 
 augmentation part       -0.4667829 magnetization 

 Broyden mixing:
  rms(total) = 0.10419E-01    rms(broyden)= 0.10419E-01
  rms(prec ) = 0.19320E-01
  weight for this iteration     100.00

 eigenvalues of (default mixing * dielectric matrix)
  average eigenvalue GAMMA=   1.9387
  1.2388  2.6813  1.8959

 Free energy of the ion-electron system (eV)
  ---------------------------------------------------
  alpha Z        PSCENC =         3.33880741
  Ewald energy   TEWEN  =      -227.98820643
  -Hartree energ DENC   =       -15.86298366
  -exchange      EXHF   =         0.00000000
  -V(xc)+E(xc)   XCENC  =       -17.90054228
  PAW double counting   =       953.47520558     -918.55676634
  entropy T*S    EENTRO =        -0.00000000
  eigenvalues    EBANDS =         4.31886957
  atomic energy  EATOM  =       206.13311910
  Solvation  Ediel_sol  =         0.00000000
  ---------------------------------------------------
  free energy    TOTEN  =       -13.04249704 eV

  energy without entropy =      -13.04249704  energy(sigma->0) =      -13.04249704


--------------------------------------------------------------------------------------------------------




--------------------------------------- Iteration      1(   9)  ---------------------------------------


    POTLOK:  cpu time    0.0315: real time    0.0289
    SETDIJ:  cpu time    0.0020: real time    0.0018
     EDDAV:  cpu time    0.3352: real time    0.3059
       DOS:  cpu time    0.0007: real time    0.0006
    CHARGE:  cpu time    0.0152: real time    0.0137
    MIXING:  cpu time    0.0014: real time    0.0013
    --------------------------------------------
      LOOP:  cpu time    0.3860: real time    0.3522

 eigenvalue-minimisations  :   560
 total energy-change (2. order) :-0.5455019E-03  (-0.4461779E-04)
 number of electron       7.9999999 magnetization 
 augmentation part       -0.4669463 magnetization 

 Broyden mixing:
  rms(total) = 0.66176E-02    rms(broyden)= 0.66176E-02
  rms(prec ) = 0.80460E-02
  weight for this iteration     100.00

 eigenvalues of (default mixing * dielectric matrix)
  average eigenvalue GAMMA=   2.1309
  0.9305  2.8178  2.3876  2.3876

 Free energy of the ion-electron system (eV)
  ---------------------------------------------------
  alpha Z        PSCENC =         3.33880741
  Ewald energy   TEWEN  =      -227.98820643
  -Hartree energ DENC   =       -15.92373200
  -exchange      EXHF   =         0.00000000
  -V(xc)+E(xc)   XCENC  =       -17.88773135
  PAW double counting   =       963.02942262     -928.10571697
  entropy T*S    EENTRO =        -0.00000000
  eigenvalues    EBANDS =         4.36099507
  atomic energy  EATOM  =       206.13311910
  Solvation  Ediel_sol  =         0.00000000
  ---------------------------------------------------
  free energy    TOTEN  =       -13.04304254 eV

  energy without entropy =      -13.04304254  energy(sigma->0) =      -13.04304254


--------------------------------------------------------------------------------------------------------




--------------------------------------- Iteration      1(  10)  ---------------------------------------


    POTLOK:  cpu time    0.0316: real time    0.0285
    SETDIJ:  cpu time    0.0020: real time    0.0018
     EDDAV:  cpu time    0.3597: real time    0.3301
       DOS:  cpu time    0.0007: real time    0.0006
    CHARGE:  cpu time    0.0152: real time    0.0137
    MIXING:  cpu time    0.0015: real time    0.0013
    --------------------------------------------
      LOOP:  cpu time    0.4106: real time    0.3760

 eigenvalue-minimisations  :   608
 total energy-change (2. order) :-0.2574442E-04  (-0.1484963E-05)
 number of electron       7.9999999 magnetization 
 augmentation part       -0.4668939 magnetization 

 Broyden mixing:
  rms(total) = 0.63893E-03    rms(broyden)= 0.63893E-03
  rms(prec ) = 0.13682E-02
  weight for this iteration     100.00

 eigenvalues of (default mixing * dielectric matrix)
  average eigenvalue GAMMA=   1.9413
  3.0371  2.4904  2.2281  1.0077  0.9432

 Free energy of the ion-electron system (eV)
  ---------------------------------------------------
  alpha Z        PSCENC =         3.33880741
  Ewald energy   TEWEN  =      -227.98820643
  -Hartree energ DENC   =       -15.93576627
  -exchange      EXHF   =         0.00000000
  -V(xc)+E(xc)   XCENC  =       -17.88701590
  PAW double counting   =       955.17612706     -920.25342362
  entropy T*S    EENTRO =        -0.00000000
  eigenvalues    EBANDS =         4.37329036
  atomic energy  EATOM  =       206.13311910
  Solvation  Ediel_sol  =         0.00000000
  ---------------------------------------------------
  free energy    TOTEN  =       -13.04306828 eV

  energy without entropy =      -13.04306828  energy(sigma->0) =      -13.04306828


--------------------------------------------------------------------------------------------------------




--------------------------------------- Iteration      1(  11)  ---------------------------------------


    POTLOK:  cpu time    0.0313: real time    0.0282
    SETDIJ:  cpu time    0.0019: real time    0.0017
     EDDAV:  cpu time    0.3236: real time    0.2929
       DOS:  cpu time    0.0007: real time    0.0006
    --------------------------------------------
      LOOP:  cpu time    0.3575: real time    0.3235

 eigenvalue-minimisations  :   548
 total energy-change (2. order) :-0.2540470E-05  (-0.3315542E-06)
 number of electron       7.9999999 magnetization 
 augmentation part       -0.4668939 magnetization 

 Free energy of the ion-electron system (eV)
  ---------------------------------------------------
  alpha Z        PSCENC =         3.33880741
  Ewald energy   TEWEN  =      -227.98820643
  -Hartree energ DENC   =       -15.93823958
  -exchange      EXHF   =         0.00000000
  -V(xc)+E(xc)   XCENC  =       -17.88650228
  PAW double counting   =       954.65282614     -919.72948171
  entropy T*S    EENTRO =        -0.00000000
  eigenvalues    EBANDS =         4.37460653
  atomic energy  EATOM  =       206.13311910
  Solvation  Ediel_sol  =         0.00000000
  ---------------------------------------------------
  free energy    TOTEN  =       -13.04307082 eV

  energy without entropy =      -13.04307082  energy(sigma->0) =      -13.04307082


--------------------------------------------------------------------------------------------------------




 average (electrostatic) potential at core
  the test charge radii are     0.9892
  (the norm of the test charge is              1.0000)
       1 -83.0914       2 -83.0914
 
 
 
 E-fermi :   3.9565     XC(G=0):  -9.2218     alpha+bet :-11.8943


 k-point     1 :       0.5000    0.0000    0.5000
  band No.  band energies     occupation 
      1      -1.9243      2.00000
      2      -1.9243      2.00000
      3       3.0205      2.00000
      4       3.0205      2.00000
      5       6.6336      0.00000
      6       6.6337      0.00000
      7      15.9032      0.00000
      8      15.9032      0.00000
      9      16.8266      0.00000
     10      16.8266      0.00000
     11      18.3005      0.00000
     12      18.3005      0.00000

 k-point     2 :       0.4900    0.0000    0.5000
  band No.  band energies     occupation 
      1      -2.0006      2.00000
      2      -1.8469      2.00000
      3       3.0151      2.00000
      4       3.0216      2.00000
      5       6.6208      0.00000
      6       6.6572      0.00000
      7      15.8822      0.00000
      8      15.8872      0.00000
      9      16.8242      0.00000
     10      16.8258      0.00000
     11      18.2173      0.00000
     12      18.4070      0.00000

 k-point     3 :       0.5100    0.0000    0.5000
  band No.  band energies     occupation 
      1      -2.0006      2.00000
      2      -1.8469      2.00000
      3       3.0151      2.00000
      4       3.0216      2.00000
      5       6.6208      0.00000
      6       6.6572      0.00000
      7      15.8822      0.00000
      8      15.8872      0.00000
      9      16.8242      0.00000
     10      16.8258      0.00000
     11      18.2173      0.00000
     12      18.4071      0.00000

 k-point     4 :       0.5000   -0.0100    0.5000
  band No.  band energies     occupation 
      1      -2.0006      2.00000
      2      -1.8469      2.00000
      3       3.0151      2.00000
      4       3.0216      2.00000
      5       6.6208      0.00000
      6       6.6572      0.00000
      7      15.8822      0.00000
      8      15.8872      0.00000
      9      16.8242      0.00000
     10      16.8258      0.00000
     11      18.2173      0.00000
     12      18.4070      0.00000

 k-point     5 :       0.5000    0.0100    0.5000
  band No.  band energies     occupation 
      1      -2.0006      2.00000
      2      -1.8469      2.00000
      3       3.0151      2.00000
      4       3.0216      2.00000
      5       6.6208      0.00000
      6       6.6572      0.00000
      7      15.8822      0.00000
      8      15.8872      0.00000
      9      16.8242      0.00000
     10      16.8258      0.00000
     11      18.2173      0.00000
     12      18.4070      0.00000

 k-point     6 :       0.5000    0.0000    0.4900
  band No.  band energies     occupation 
      1      -2.0006      2.00000
      2      -1.8469      2.00000
      3       3.0151      2.00000
      4       3.0216      2.00000
      5       6.6208      0.00000
      6       6.6572      0.00000
      7      15.8822      0.00000
      8      15.8872      0.00000
      9      16.8242      0.00000
     10      16.8258      0.00000
     11      18.2173      0.00000
     12      18.4071      0.00000

 k-point     7 :       0.5000    0.0000    0.5100
  band No.  band energies     occupation 
      1      -2.0006      2.00000
      2      -1.8469      2.00000
      3       3.0151      2.00000
      4       3.0216      2.00000
      5       6.6208      0.00000
      6       6.6572      0.00000
      7      15.8822      0.00000
      8      15.8872      0.00000
      9      16.8242      0.00000
     10      16.8258      0.00000
     11      18.2173      0.00000
     12      18.4070      0.00000

 k-point     8 :       0.4900   -0.0100    0.5000
  band No.  band energies     occupation 
      1      -1.9237      2.00000
      2      -1.9237      2.00000
      3       3.0154      2.00000
      4       3.0154      2.00000
      5       6.6432      0.00000
      6       6.6432      0.00000
      7      15.8878      0.00000
      8      15.8878      0.00000
      9      16.8021      0.00000
     10      16.8021      0.00000
     11      18.3219      0.00000
     12      18.3220      0.00000

 k-point     9 :       0.5100    0.0100    0.5000
  band No.  band energies     occupation 
      1      -1.9237      2.00000
      2      -1.9237      2.00000
      3       3.0154      2.00000
      4       3.0154      2.00000
      5       6.6432      0.00000
      6       6.6432      0.00000
      7      15.8878      0.00000
      8      15.8878      0.00000
      9      16.8021      0.00000
     10      16.8021      0.00000
     11      18.3219      0.00000
     12      18.3220      0.00000

 k-point    10 :       0.5100   -0.0100    0.5000
  band No.  band energies     occupation 
      1      -2.0764      2.00000
      2      -1.7690      2.00000
      3       3.0167      2.00000
      4       3.0171      2.00000
      5       6.6100      0.00000
      6       6.6810      0.00000
      7      15.8381      0.00000
      8      15.8530      0.00000
      9      16.8368      0.00000
     10      16.8528      0.00000
     11      18.1338      0.00000
     12      18.5145      0.00000

 k-point    11 :       0.4900    0.0100    0.5000
  band No.  band energies     occupation 
      1      -2.0764      2.00000
      2      -1.7690      2.00000
      3       3.0167      2.00000
      4       3.0171      2.00000
      5       6.6100      0.00000
      6       6.6810      0.00000
      7      15.8381      0.00000
      8      15.8530      0.00000
      9      16.8368      0.00000
     10      16.8528      0.00000
     11      18.1338      0.00000
     12      18.5139      0.00000

 k-point    12 :       0.4900    0.0000    0.4900
  band No.  band energies     occupation 
      1      -2.0771      2.00000
      2      -1.7694      2.00000
      3       3.0221      2.00000
      4       3.0221      2.00000
      5       6.6004      0.00000
      6       6.6716      0.00000
      7      15.8612      0.00000
      8      15.8612      0.00000
      9      16.8692      0.00000
     10      16.8692      0.00000
     11      18.1129      0.00000
     12      18.4919      0.00000

 k-point    13 :       0.5100    0.0000    0.5100
  band No.  band energies     occupation 
      1      -2.0771      2.00000
      2      -1.7694      2.00000
      3       3.0221      2.00000
      4       3.0221      2.00000
      5       6.6004      0.00000
      6       6.6716      0.00000
      7      15.8612      0.00000
      8      15.8612      0.00000
      9      16.8692      0.00000
     10      16.8692      0.00000
     11      18.1129      0.00000
     12      18.4948      0.00000

 k-point    14 :       0.5100    0.0000    0.4900
  band No.  band energies     occupation 
      1      -1.9258      2.00000
      2      -1.9205      2.00000
      3       2.9972      2.00000
      4       3.0233      2.00000
      5       6.6368      0.00000
      6       6.6686      0.00000
      7      15.8632      0.00000
      8      15.8830      0.00000
      9      16.7736      0.00000
     10      16.7805      0.00000
     11      18.3431      0.00000
     12      18.3460      0.00000

 k-point    15 :       0.4900    0.0000    0.5100
  band No.  band energies     occupation 
      1      -1.9258      2.00000
      2      -1.9205      2.00000
      3       2.9972      2.00000
      4       3.0233      2.00000
      5       6.6368      0.00000
      6       6.6686      0.00000
      7      15.8632      0.00000
      8      15.8830      0.00000
      9      16.7736      0.00000
     10      16.7805      0.00000
     11      18.3431      0.00000
     12      18.3460      0.00000

 k-point    16 :       0.5000   -0.0100    0.4900
  band No.  band energies     occupation 
      1      -1.9237      2.00000
      2      -1.9237      2.00000
      3       3.0154      2.00000
      4       3.0154      2.00000
      5       6.6432      0.00000
      6       6.6432      0.00000
      7      15.8878      0.00000
      8      15.8878      0.00000
      9      16.8021      0.00000
     10      16.8021      0.00000
     11      18.3219      0.00000
     12      18.3220      0.00000

 k-point    17 :       0.5000    0.0100    0.5100
  band No.  band energies     occupation 
      1      -1.9237      2.00000
      2      -1.9237      2.00000
      3       3.0154      2.00000
      4       3.0154      2.00000
      5       6.6432      0.00000
      6       6.6432      0.00000
      7      15.8878      0.00000
      8      15.8878      0.00000
      9      16.8021      0.00000
     10      16.8021      0.00000
     11      18.3219      0.00000
     12      18.3219      0.00000

 k-point    18 :       0.5000    0.0100    0.4900
  band No.  band energies     occupation 
      1      -2.0764      2.00000
      2      -1.7690      2.00000
      3       3.0167      2.00000
      4       3.0171      2.00000
      5       6.6100      0.00000
      6       6.6810      0.00000
      7      15.8381      0.00000
      8      15.8530      0.00000
      9      16.8368      0.00000
     10      16.8528      0.00000
     11      18.1338      0.00000
     12      18.5139      0.00000

 k-point    19 :       0.5000   -0.0100    0.5100
  band No.  band energies     occupation 
      1      -2.0764      2.00000
      2      -1.7690      2.00000
      3       3.0167      2.00000
      4       3.0171      2.00000
      5       6.6100      0.00000
      6       6.6810      0.00000
      7      15.8381      0.00000
      8      15.8530      0.00000
      9      16.8368      0.00000
     10      16.8528      0.00000
     11      18.1338      0.00000
     12      18.5137      0.00000


--------------------------------------------------------------------------------------------------------


 soft charge-density along one line, spin component           1
         0         1         2         3         4         5         6         7         8         9
x     8.4669    0.0000    2.1122    0.0000    0.3225    0.0000    0.0812    0.0000    0.0041    0.0000
x    -0.0019   -0.0000   -0.0007   -0.0000   -0.0000   -0.0000    0.0000    0.0000    0.0000   -0.0000
x    -0.0000   -0.0000   -0.0000   -0.0000    0.0000    0.0000
y     8.4669    0.0000    2.1122    0.0000    0.3225    0.0000    0.0812    0.0000    0.0041    0.0000
y    -0.0019   -0.0000   -0.0007   -0.0000   -0.0000   -0.0000    0.0000    0.0000    0.0000   -0.0000
y    -0.0000   -0.0000   -0.0000   -0.0000    0.0000    0.0000
z     8.4669    0.0000    2.1122    0.0000    0.3225    0.0000    0.0812    0.0000    0.0041    0.0000
z    -0.0019   -0.0000   -0.0007   -0.0000   -0.0000   -0.0000    0.0000    0.0000    0.0000   -0.0000
z    -0.0000   -0.0000   -0.0000   -0.0000    0.0000    0.0000
 total charge-density along one line
x     8.0000    0.0000    1.8304    0.0000    0.3226    0.0000    0.1498    0.0000    0.0230   -0.0000
x    -0.0030   -0.0000   -0.0007   -0.0000   -0.0003   -0.0000    0.0000   -0.0000    0.0001   -0.0000
x    -0.0000   -0.0000    0.0000    0.0000   -0.0000   -0.0000    0.0000    0.0000    0.0000    0.0000
x     0.0000    0.0000   -0.0000   -0.0000   -0.0000   -0.0000    0.0000    0.0000   -0.0000   -0.0000
x     0.0000   -0.0000   -0.0000    0.0000   -0.0000    0.0000   -0.0000   -0.0000    0.0000    0.0000
y     8.0000    0.0000    1.8304    0.0000    0.3226    0.0000    0.1498    0.0000    0.0230   -0.0000
y    -0.0030   -0.0000   -0.0007   -0.0000   -0.0003   -0.0000    0.0000   -0.0000    0.0001    0.0000
y    -0.0000    0.0000    0.0000   -0.0000   -0.0000    0.0000    0.0000   -0.0000    0.0000   -0.0000
y     0.0000    0.0000   -0.0000    0.0000   -0.0000   -0.0000    0.0000   -0.0000   -0.0000   -0.0000
y     0.0000   -0.0000   -0.0000    0.0000   -0.0000    0.0000   -0.0000    0.0000    0.0000   -0.0000
z     8.0000    0.0000    1.8304    0.0000    0.3226    0.0000    0.1498    0.0000    0.0230   -0.0000
z    -0.0030   -0.0000   -0.0007    0.0000   -0.0003   -0.0000    0.0000   -0.0000    0.0001   -0.0000
z    -0.0000   -0.0000    0.0000   -0.0000   -0.0000   -0.0000    0.0000   -0.0000    0.0000    0.0000
z     0.0000    0.0000   -0.0000    0.0000   -0.0000    0.0000    0.0000   -0.0000   -0.0000   -0.0000
z     0.0000   -0.0000   -0.0000    0.0000    0.0000    0.0000   -0.0000   -0.0000    0.0000   -0.0000
 
 pseudopotential strength for first ion, spin component:           1
 18.403  25.676   0.000   0.000   0.000   0.000   0.000   0.000
 25.676  35.826   0.000   0.000   0.000   0.000   0.000   0.000
  0.000   0.000   4.180  -0.000  -0.000   7.788  -0.000  -0.000
  0.000   0.000  -0.000   4.180  -0.000  -0.000   7.788  -0.000
  0.000   0.000  -0.000  -0.000   4.180  -0.000  -0.000   7.788
  0.000   0.000   7.788  -0.000  -0.000  14.523  -0.000  -0.000
  0.000   0.000  -0.000   7.788  -0.000  -0.000  14.523  -0.000
  0.000   0.000  -0.000  -0.000   7.788  -0.000  -0.000  14.523
 total augmentation occupancy for first ion, spin component:           1
  5.270  -1.745   0.000  -0.000  -0.000  -0.000  -0.000  -0.000
 -1.745   0.578   0.000   0.000  -0.000   0.000   0.000   0.000
  0.000  -0.000   3.351  -0.000   0.000  -0.808   0.000  -0.000
 -0.000   0.000  -0.000   3.351   0.000   0.000  -0.808  -0.000
 -0.000  -0.000   0.000   0.000   3.351  -0.000  -0.000  -0.808
 -0.000   0.000  -0.808  -0.000  -0.000   0.201  -0.000   0.000
  0.000  -0.000   0.000  -0.808  -0.000   0.000   0.201   0.000
  0.000  -0.000  -0.000  -0.000  -0.808   0.000   0.000   0.201


------------------------ aborting loop because EDIFF is reached ----------------------------------------


 


 total charge     
 
# of ion       s       p       d       tot
------------------------------------------
    1        0.771   0.962   0.000   1.732
    2        0.771   0.962   0.000   1.732
--------------------------------------------------
tot          1.541   1.924   0.000   3.465
 
    CHARGE:  cpu time    0.0150: real time    0.0135
    FORLOC:  cpu time    0.0013: real time    0.0012
    FORNL :  cpu time    0.0194: real time    0.0175
    STRESS:  cpu time    0.0558: real time    0.0502
    FORCOR:  cpu time    0.0315: real time    0.0284
    FORHAR:  cpu time    0.0064: real time    0.0058
    MIXING:  cpu time    0.0015: real time    0.0014
    OFIELD:  cpu time    0.0000: real time    0.0000

  FORCE on cell =-STRESS in cart. coord.  units (eV):
  Direction    XX          YY          ZZ          XY          YZ          ZX
  --------------------------------------------------------------------------------------
  Alpha Z     3.33881     3.33881     3.33881
  Ewald     -75.99608   -75.99616   -75.99607     0.00001    -0.00000     0.00000
  Hartree     5.31290     5.31289     5.31290     0.00000     0.00000     0.00000
  E(xc)     -25.51867   -25.51867   -25.51867    -0.00000    -0.00000    -0.00000
  Local     -29.93449   -29.93448   -29.93447    -0.00000     0.00001     0.00001
  n-local    81.59816    79.32593    77.02576     3.24105     5.61366    -3.95982
  augment   -11.85698   -11.85698   -11.85700    -0.00000    -0.00001    -0.00001
  Kinetic    57.94388    55.36384    52.76223     3.68215     6.37767    -4.48745
  Fock        0.00000     0.00000     0.00000     0.00000     0.00000     0.00000
  -------------------------------------------------------------------------------------
  Total       0.01874     0.01874     0.01874     0.00000     0.00000    -0.00000
  in kB       0.74429     0.74429     0.74429     0.00000     0.00000    -0.00000
  external pressure =        0.74 kB  Pullay stress =        0.00 kB


 VOLUME and BASIS-vectors are now :
 -----------------------------------------------------------------------------
  energy-cutoff  :      600.00
  volume of cell :       40.33
      direct lattice vectors                 reciprocal lattice vectors
     3.333573000  0.000000000  1.924639000     0.299978432 -0.106058350  0.000000000
     1.111191000  3.142924000  1.924639000     0.000000000  0.318175050  0.000000000
     0.000000000  0.000000000  3.849278000    -0.149989216 -0.106058350  0.259788979

  length of vectors
     3.849278403  3.849279412  3.849278000     0.318175161  0.318175050  0.318175190


 FORCES acting on ions
    electron-ion (+dipol)            ewald-force                    non-local-force                 convergence-correction
 -----------------------------------------------------------------------------------------------
   0.537E-05 0.245E-04 0.268E-06   -.892E-05 -.418E-04 -.429E-15   -.796E-18 0.679E-18 0.460E-18   -.209E-09 0.130E-09 -.484E-09
   -.537E-05 -.245E-04 -.268E-06   0.892E-05 0.418E-04 0.408E-15   0.608E-18 -.801E-18 0.990E-19   0.209E-09 -.130E-09 0.484E-09
 -----------------------------------------------------------------------------------------------
   -.154E-13 0.683E-14 -.750E-14   -.341E-15 0.468E-16 -.212E-16   -.189E-18 -.122E-18 0.559E-18   -.161E-14 -.942E-15 -.156E-14
 
 
 POSITION                                       TOTAL-FORCE (eV/Angst)
 -----------------------------------------------------------------------------------
      3.88917      2.75006      6.73624        -0.000000     -0.000000     -0.000000
      0.55560      0.39287      0.96232         0.000000      0.000000      0.000000
 -----------------------------------------------------------------------------------
    total drift:                               -0.000000      0.000000     -0.000000


--------------------------------------------------------------------------------------------------------



  FREE ENERGIE OF THE ION-ELECTRON SYSTEM (eV)
  ---------------------------------------------------
  free  energy   TOTEN  =       -13.04307082 eV

  energy  without entropy=      -13.04307082  energy(sigma->0) =      -13.04307082
 


--------------------------------------------------------------------------------------------------------


    POTLOK:  cpu time    0.0332: real time    0.0299


--------------------------------------------------------------------------------------------------------


 writing wavefunctions
     LOOP+:  cpu time    4.4814: real time    4.0475
    4ORBIT:  cpu time    0.0000: real time    0.0000
 


 total charge     
 
# of ion       s       p       d       tot
------------------------------------------
    1        0.771   0.962   0.000   1.732
    2        0.771   0.962   0.000   1.732
--------------------------------------------------
tot          1.541   1.924   0.000   3.465
 

 total amount of memory used by VASP MPI-rank0    42749. kBytes
=======================================================================

   base      :      30000. kBytes
   nonl-proj :       1699. kBytes
   grid      :       6018. kBytes
   one-center:          6. kBytes
   wavefun   :       5026. kBytes
 
  
  
 General timing and accounting informations for this job:
 ========================================================
  
                  Total CPU time used (sec):        4.739
                            User time (sec):        4.674
                          System time (sec):        0.064
                         Elapsed time (sec):        4.283
  
                   Maximum memory used (kb):       31080.
                   Average memory used (kb):           0.
  
                          Minor page faults:        16636
                          Major page faults:            0
                 Voluntary context switches:           14
