 vasp.5.4.4.18Apr17-6-g9f103f2a35 (build Sep 03 2019 17:22:03) complex          
  
 executed on             LinuxIFC date 2024.12.15  14:47:05
 serial version


--------------------------------------------------------------------------------------------------------


 INCAR:
 POTCAR:    PAW_PBE Si 05Jan2001                  
 POTCAR:    PAW_PBE Si 05Jan2001                  
   SHA256 =  79d9987ad8750f624c4d6acb2a16d13abf6a777132adc04dc6c8399be72b42bb Si
   COPYR  = (c) Copyright 05Jan2001 Georg Kresse                                
   COPYR  = This file is part of the software VASP. Any use, copying, and all ot
   COPYR  = If you do not have a valid VASP license, you may not use, copy or di
   VRHFIN =Si: s2p2                                                             
   LEXCH  = PE                                                                  
   EATOM  =   103.0669 eV,    7.5752 Ry                                         
                                                                                
   TITEL  = PAW_PBE Si 05Jan2001                                                
   LULTRA =        F    use ultrasoft PP ?                                      
   IUNSCR =        1    unscreen: 0-lin 1-nonlin 2-no                           
   RPACOR =    1.500    partial core radius                                     
   POMASS =   28.085; ZVAL   =    4.000    mass and valenz                      
   RCORE  =    1.900    outmost cutoff radius                                   
   RWIGS  =    2.480; RWIGS  =    1.312    wigner-seitz radius (au A)           
   ENMAX  =  245.345; ENMIN  =  184.009 eV                                      
   ICORE  =        2    local potential                                         
   LCOR   =        T    correct aug charges                                     
   LPAW   =        T    paw PP                                                  
   EAUG   =  322.069                                                            
   DEXC   =    0.000                                                            
   RMAX   =    1.950    core radius for proj-oper                               
   RAUG   =    1.300    factor for augmentation sphere                          
   RDEP   =    1.993    radius for radial grids                                 
   RDEPT  =    1.837    core radius for aug-charge                              
                                                                                
   Atomic configuration                                                         
    6 entries                                                                   
     n  l   j            E        occ.                                          
     1  0  0.50     -1785.8828   2.0000                                         
     2  0  0.50      -139.4969   2.0000                                         
     2  1  1.50       -95.5546   6.0000                                         
     3  0  0.50       -10.8127   2.0000                                         
     3  1  0.50        -4.0811   2.0000                                         
     3  2  1.50        -4.0817   0.0000                                         
   Description                                                                  
     l       E           TYP  RCUT    TYP  RCUT                                 
     0    -10.8127223     23  1.900                                             
     0     -7.6451159     23  1.900                                             
     1     -4.0811372     23  1.900                                             
     1      2.4879257     23  1.900                                             
     2     -4.0817478      7  1.900                                             
  local pseudopotential read in
  partial core-charges read in
  partial kinetic energy density read in
  atomic valenz-charges read in
  non local Contribution for L=           0  read in
    real space projection operators read in
  non local Contribution for L=           0  read in
    real space projection operators read in
  non local Contribution for L=           1  read in
    real space projection operators read in
  non local Contribution for L=           1  read in
    real space projection operators read in
    PAW grid and wavefunctions read in
 
   number of l-projection  operators is LMAX  =           4
   number of lm-projection operators is LMMAX =           8
 
  PAW_PBE Si 05Jan2001                  :
 energy of atom  1       EATOM= -103.0669
 kinetic energy error for atom=    0.0003 (will be added to EATOM!!)
 
 
 POSCAR: i2a=[Si] ; Si                           
  positions in direct lattice
  No initial velocities read in
 exchange correlation table for  LEXCH =        8
   RHO(1)=    0.500       N(1)  =     2000
   RHO(2)=  100.500       N(2)  =     4000
 


--------------------------------------------------------------------------------------------------------


 ion  position               nearest neighbor table
   1  0.875  0.875  0.875-   2 2.36   2 2.36   2 2.36   2 2.36
   2  0.125  0.125  0.125-   1 2.36   1 2.36   1 2.36   1 2.36
 
  LATTYP: Found a face centered cubic cell.
 ALAT       =     5.4437011529
  
  Lattice vectors:
  
 A1 = (   3.3335730000,   0.0000000000,   1.9246390000)
 A2 = (   1.1111910000,   3.1429240000,   1.9246390000)
 A3 = (   0.0000000000,   0.0000000000,   3.8492780000)


Analysis of symmetry for initial positions (statically):
=====================================================================
 Subroutine PRICEL returns:
 Original cell was already a primitive cell.
 

 Routine SETGRP: Setting up the symmetry group for a 
 face centered cubic supercell.


 Subroutine GETGRP returns: Found 48 space group operations
 (whereof 12 operations were pure point group operations)
 out of a pool of 48 trial point group operations.


The static configuration has the point symmetry D_3d.
 The point group associated with its full space group is O_h .


Analysis of symmetry for dynamics (positions and initial velocities):
=====================================================================
 Subroutine PRICEL returns:
 Original cell was already a primitive cell.
 

 Routine SETGRP: Setting up the symmetry group for a 
 face centered cubic supercell.


 Subroutine GETGRP returns: Found 48 space group operations
 (whereof 12 operations were pure point group operations)
 out of a pool of 48 trial point group operations.


The dynamic configuration has the point symmetry D_3d.
 The point group associated with its full space group is O_h .


 Subroutine INISYM returns: Found 48 space group operations
 (whereof 12 operations are pure point group operations),
 and found     1 'primitive' translations

 
 
 KPOINTS: Explicit k-point list                   
  k-points in reciprocal lattice
Space group operators:
 irot       det(A)        alpha          n_x          n_y          n_z        tau_x        tau_y        tau_z
    1     1.000000     0.000000     1.000000     0.000000     0.000000     0.000000     0.000000     0.000000
    2    -1.000000     0.000000     1.000000     0.000000     0.000000     0.000000     0.000000     0.000000
    3     1.000000   120.000000    -0.471404    -0.333333    -0.816497     0.000000     0.000000     0.000000
    4    -1.000000   120.000000    -0.471404    -0.333333    -0.816497     0.000000     0.000000     0.000000
    5     1.000000   120.000000     0.471405     0.333333     0.816496     0.000000     0.000000     0.000000
    6    -1.000000   120.000000     0.471405     0.333333     0.816496     0.000000     0.000000     0.000000
    7     1.000000   180.000000     0.288675     0.816496    -0.500000     0.000000     0.000000     0.000000
    8    -1.000000   180.000000     0.288675     0.816496    -0.500000     0.000000     0.000000     0.000000
    9     1.000000   180.000000     0.577350    -0.816496     0.000000     0.000000     0.000000     0.000000
   10    -1.000000   180.000000     0.577350    -0.816496     0.000000     0.000000     0.000000     0.000000
   11     1.000000   180.000000     0.866025    -0.000000    -0.500000     0.000000     0.000000     0.000000
   12    -1.000000   180.000000     0.866025    -0.000000    -0.500000     0.000000     0.000000     0.000000
   13     1.000000    90.000000    -0.816497    -0.577350    -0.000000     0.500000     0.000000     0.000000
   14    -1.000000    90.000000    -0.816497    -0.577350    -0.000000     0.500000     0.000000     0.000000
   15     1.000000   180.000000     0.866025    -0.000000     0.500000     0.500000     0.000000     0.000000
   16    -1.000000   180.000000     0.866025    -0.000000     0.500000     0.500000     0.000000     0.000000
   17     1.000000    90.000000     0.408248    -0.577350     0.707107     0.500000     0.000000     0.000000
   18    -1.000000    90.000000     0.408248    -0.577350     0.707107     0.500000     0.000000     0.000000
   19     1.000000   180.000000     0.816497     0.577350     0.000000     0.000000     0.000000     0.500000
   20    -1.000000   180.000000     0.816497     0.577350     0.000000     0.000000     0.000000     0.500000
   21     1.000000   120.000000     0.942809    -0.333333     0.000000     0.000000     0.000000     0.500000
   22    -1.000000   120.000000     0.942809    -0.333333     0.000000     0.000000     0.000000     0.500000
   23     1.000000   120.000000     0.000000    -1.000000     0.000000     0.000000     0.000000     0.500000
   24    -1.000000   120.000000     0.000000    -1.000000     0.000000     0.000000     0.000000     0.500000
   25     1.000000    90.000000     0.816497     0.577350    -0.000000     0.000000     0.500000     0.000000
   26    -1.000000    90.000000     0.816497     0.577350    -0.000000     0.000000     0.500000     0.000000
   27     1.000000    90.000000     0.408249    -0.577350    -0.707107     0.000000     0.500000     0.000000
   28    -1.000000    90.000000     0.408249    -0.577350    -0.707107     0.000000     0.500000     0.000000
   29     1.000000   179.999999     0.288675     0.816496     0.500000     0.000000     0.500000     0.000000
   30    -1.000000   179.999999     0.288675     0.816496     0.500000     0.000000     0.500000     0.000000
   31     1.000000   120.000000     0.000000     1.000000     0.000000     0.500000     0.000000     0.000000
   32    -1.000000   120.000000     0.000000     1.000000     0.000000     0.500000     0.000000     0.000000
   33     1.000000   120.000000     0.471404     0.333333    -0.816497     0.500000     0.000000     0.000000
   34    -1.000000   120.000000     0.471404     0.333333    -0.816497     0.500000     0.000000     0.000000
   35     1.000000   180.000000    -0.408248     0.577350     0.707107     0.500000     0.000000     0.000000
   36    -1.000000   180.000000    -0.408248     0.577350     0.707107     0.500000     0.000000     0.000000
   37     1.000000    90.000000    -0.408249     0.577350    -0.707107     0.000000     0.000000     0.500000
   38    -1.000000    90.000000    -0.408249     0.577350    -0.707107     0.000000     0.000000     0.500000
   39     1.000000   180.000000    -0.000000     0.000000     1.000000     0.000000     0.000000     0.500000
   40    -1.000000   180.000000    -0.000000     0.000000     1.000000     0.000000     0.000000     0.500000
   41     1.000000    90.000000    -0.408248     0.577350     0.707107     0.000000     0.000000     0.500000
   42    -1.000000    90.000000    -0.408248     0.577350     0.707107     0.000000     0.000000     0.500000
   43     1.000000   120.000000    -0.942809     0.333333     0.000000     0.000000     0.500000     0.000000
   44    -1.000000   120.000000    -0.942809     0.333333     0.000000     0.000000     0.500000     0.000000
   45     1.000000   180.000000    -0.408248     0.577350    -0.707107     0.000000     0.500000     0.000000
   46    -1.000000   180.000000    -0.408248     0.577350    -0.707107     0.000000     0.500000     0.000000
   47     1.000000   120.000000    -0.471405    -0.333333     0.816496     0.000000     0.500000     0.000000
   48    -1.000000   120.000000    -0.471405    -0.333333     0.816496     0.000000     0.500000     0.000000


--------------------------------------------------------------------------------------------------------




 Dimension of arrays:
   k-points           NKPTS =     19   k-points in BZ     NKDIM =     19   number of bands    NBANDS=     12
   number of dos      NEDOS =    301   number of ions     NIONS =      2
   non local maximal  LDIM  =      4   non local SUM 2l+1 LMDIM =      8
   total plane-waves  NPLWV =  13824
   max r-space proj   IRMAX =      1   max aug-charges    IRDMAX=  11659
   dimension x,y,z NGX =    24 NGY =   24 NGZ =   24
   dimension x,y,z NGXF=    48 NGYF=   48 NGZF=   48
   support grid    NGXF=    48 NGYF=   48 NGZF=   48
   ions per type =               2
   NGX,Y,Z   is equivalent  to a cutoff of  10.37, 10.37, 10.37 a.u.
   NGXF,Y,Z  is equivalent  to a cutoff of  20.73, 20.73, 20.73 a.u.

 SYSTEM =  auto Fully inherited from the final st  
 POSCAR =  i2a=[Si] ; Si                           

 Startparameter for this run:
   NWRITE =      2    write-flag & timer
   PREC   = normal    normal or accurate (medium, high low for compatibility)
   ISTART =      0    job   : 0-new  1-cont  2-samecut
   ICHARG =      2    charge: 1-file 2-atom 10-const
   ISPIN  =      1    spin polarized calculation?
   LNONCOLLINEAR =      F non collinear calculations
   LSORBIT =      F    spin-orbit coupling
   INIWAV =      1    electr: 0-lowe 1-rand  2-diag
   LASPH  =      F    aspherical Exc in radial PAW
   METAGGA=      F    non-selfconsistent MetaGGA calc.

 Electronic Relaxation 1
   ENCUT  =  600.0 eV  44.10 Ry    6.64 a.u.   7.69  7.69  7.69*2*pi/ulx,y,z
   ENINI  =  600.0     initial cutoff
   ENAUG  =  700.0 eV  augmentation charge cutoff
   NELM   =     60;   NELMIN=  2; NELMDL= -5     # of ELM steps 
   EDIFF  = 0.1E-04   stopping-criterion for ELM
   LREAL  =      F    real-space projection
   NLSPLINE    = F    spline interpolate recip. space projectors
   LCOMPAT=      F    compatible to vasp.4.4
   GGA_COMPAT  = T    GGA compatible to vasp.4.4-vasp.4.6
   LMAXPAW     = -100 max onsite density
   LMAXMIX     =    2 max onsite mixed and CHGCAR
   VOSKOWN=      0    Vosko Wilk Nusair interpolation
   ROPT   =    0.00000
 Ionic relaxation
   EDIFFG = 0.1E-03   stopping-criterion for IOM
   NSW    =      0    number of steps for IOM
   NBLOCK =      1;   KBLOCK =      1    inner block; outer block 
   IBRION =     -1    ionic relax: 0-MD 1-quasi-New 2-CG
   NFREE  =      0    steps in history (QN), initial steepest desc. (CG)
   ISIF   =      2    stress and relaxation
   IWAVPR =      0    prediction:  0-non 1-charg 2-wave 3-comb
   ISYM   =      2    0-nonsym 1-usesym 2-fastsym
   LCORR  =      T    Harris-Foulkes like correction to forces

   POTIM  = 0.5000    time-step for ionic-motion
   TEIN   =    0.0    initial temperature
   TEBEG  =    0.0;   TEEND  =   0.0 temperature during run
   SMASS  =  -3.00    Nose mass-parameter (am)
   estimated Nose-frequenzy (Omega)   =  0.10E-29 period in steps =****** mass=  -0.339E-27a.u.
   SCALEE = 1.0000    scale energy and forces
   NPACO  =    256;   APACO  = 16.0  distance and # of slots for P.C.
   PSTRESS=    0.0 pullay stress

  Mass of Ions in am
   POMASS =  28.09
  Ionic Valenz
   ZVAL   =   4.00
  Atomic Wigner-Seitz radii
   RWIGS  =  -1.00
  virtual crystal weights 
   VCA    =   1.00
   NELECT =       8.0000    total number of electrons
   NUPDOWN=      -1.0000    fix difference up-down

 DOS related values:
   EMIN   =  10.00;   EMAX   =-10.00  energy-range for DOS
   EFERMI =   0.00
   ISMEAR =     0;   SIGMA  =   0.20  broadening in eV -4-tet -1-fermi 0-gaus

 Electronic relaxation 2 (details)
   IALGO  =     38    algorithm
   LDIAG  =      T    sub-space diagonalisation (order eigenvalues)
   LSUBROT=      F    optimize rotation matrix (better conditioning)
   TURBO    =      0    0=normal 1=particle mesh
   IRESTART =      0    0=no restart 2=restart with 2 vectors
   NREBOOT  =      0    no. of reboots
   NMIN     =      0    reboot dimension
   EREF     =   0.00    reference energy to select bands
   IMIX   =      4    mixing-type and parameters
     AMIX     =   0.40;   BMIX     =  1.00
     AMIX_MAG =   1.60;   BMIX_MAG =  1.00
     AMIN     =   0.10
     WC   =   100.;   INIMIX=   1;  MIXPRE=   1;  MAXMIX= -45

 Intra band minimization:
   WEIMIN = 0.0000     energy-eigenvalue tresh-hold
   EBREAK =  0.21E-06  absolut break condition
   DEPER  =   0.30     relativ break condition  

   TIME   =   0.40     timestep for ELM

  volume/ion in A,a.u.               =      20.16       136.08
  Fermi-wavevector in a.u.,A,eV,Ry     =   0.954766  1.804247 12.402783  0.911579
  Thomas-Fermi vector in A             =   2.083543
 
 Write flags
   LWAVE        =      T    write WAVECAR
   LDOWNSAMPLE  =      F    k-point downsampling of WAVECAR
   LCHARG       =      T    write CHGCAR
   LVTOT        =      F    write LOCPOT, total local potential
   LVHAR        =      F    write LOCPOT, Hartree potential only
   LELF         =      F    write electronic localiz. function (ELF)
   LORBIT       =     11    0 simple, 1 ext, 2 COOP (PROOUT), +10 PAW based schemes


 Dipole corrections
   LMONO  =      F    monopole corrections only (constant potential shift)
   LDIPOL =      F    correct potential (dipole corrections)
   IDIPOL =      0    1-x, 2-y, 3-z, 4-all directions 
   EPSILON=  1.0000000 bulk dielectric constant

 Exchange correlation treatment:
   GGA     =    --    GGA type
   LEXCH   =     8    internal setting for exchange type
   VOSKOWN=      0    Vosko Wilk Nusair interpolation
   LHFCALC =     F    Hartree Fock is set to
   LHFONE  =     F    Hartree Fock one center treatment
   AEXX    =    0.0000 exact exchange contribution

 Linear response parameters
   LEPSILON=     F    determine dielectric tensor
   LRPA    =     F    only Hartree local field effects (RPA)
   LNABLA  =     F    use nabla operator in PAW spheres
   LVEL    =     F    velocity operator in full k-point grid
   LINTERFAST=   F  fast interpolation
   KINTER  =     0    interpolate to denser k-point grid
   CSHIFT  =0.1000    complex shift for real part using Kramers Kronig
   OMEGAMAX=  -1.0    maximum frequency
   DEG_THRESHOLD= 0.2000000E-02 threshold for treating states as degnerate
   RTIME   =   -0.100 relaxation time in fs
  (WPLASMAI=    0.000 imaginary part of plasma frequency in eV, 0.658/RTIME)
   DFIELD  = 0.0000000 0.0000000 0.0000000 field for delta impulse in time
 
 Orbital magnetization related:
   ORBITALMAG=     F  switch on orbital magnetization
   LCHIMAG   =     F  perturbation theory with respect to B field
   DQ        =  0.001000  dq finite difference perturbation B field
   LLRAUG    =     F  two centre corrections for induced B field



--------------------------------------------------------------------------------------------------------


 Static calculation
 charge density and potential will be updated during run
 non-spin polarized calculation
 Variant of blocked Davidson
 Davidson routine will perform the subspace rotation
 perform sub-space diagonalisation
    after iterative eigenvector-optimisation
 modified Broyden-mixing scheme, WC =      100.0
 initial mixing is a Kerker type mixing with AMIX =  0.4000 and BMIX =      1.0000
 Hartree-type preconditioning will be used
 using additional bands            8
 reciprocal scheme for non local part
 use partial core corrections
 calculate Harris-corrections to forces 
   (improved forces if not selfconsistent)
 use gradient corrections 
 use of overlap-Matrix (Vanderbilt PP)
 Gauss-broadening in eV      SIGMA  =   0.20


--------------------------------------------------------------------------------------------------------


  energy-cutoff  :      600.00
  volume of cell :       40.33
      direct lattice vectors                 reciprocal lattice vectors
     3.333573000  0.000000000  1.924639000     0.299978432 -0.106058350  0.000000000
     1.111191000  3.142924000  1.924639000     0.000000000  0.318175050  0.000000000
     0.000000000  0.000000000  3.849278000    -0.149989216 -0.106058350  0.259788979

  length of vectors
     3.849278403  3.849279412  3.849278000     0.318175161  0.318175050  0.318175190


 
 k-points in units of 2pi/SCALE and weight: Explicit k-point list                   
   0.04724660 -0.02672670  0.17847503       0.053
   0.04424682 -0.02566612  0.17847503       0.053
   0.05024639 -0.02778729  0.17847503       0.053
   0.04724660 -0.02990845  0.17847503       0.053
   0.04724660 -0.02354495  0.17847503       0.053
   0.04874650 -0.02566612  0.17587714       0.053
   0.04574671 -0.02778729  0.18107292       0.053
   0.04424682 -0.02884787  0.17847503       0.053
   0.05024639 -0.02460554  0.17847503       0.053
   0.05024639 -0.03096904  0.17847503       0.053
   0.04424682 -0.02248437  0.17847503       0.053
   0.04574671 -0.02460554  0.17587714       0.053
   0.04874650 -0.02884787  0.18107292       0.053
   0.05174628 -0.02672670  0.17587714       0.053
   0.04274693 -0.02672670  0.18107292       0.053
   0.04874650 -0.02884787  0.17587714       0.053
   0.04574671 -0.02460554  0.18107292       0.053
   0.04874650 -0.02248437  0.17587714       0.053
   0.04574671 -0.03096904  0.18107292       0.053
 
 k-points in reciprocal lattice and weights: Explicit k-point list                   
   0.50100000  0.31200000  0.68700000       0.053
   0.49100000  0.31200000  0.68700000       0.053
   0.51100000  0.31200000  0.68700000       0.053
   0.50100000  0.30200000  0.68700000       0.053
   0.50100000  0.32200000  0.68700000       0.053
   0.50100000  0.31200000  0.67700000       0.053
   0.50100000  0.31200000  0.69700000       0.053
   0.49100000  0.30200000  0.68700000       0.053
   0.51100000  0.32200000  0.68700000       0.053
   0.51100000  0.30200000  0.68700000       0.053
   0.49100000  0.32200000  0.68700000       0.053
   0.49100000  0.31200000  0.67700000       0.053
   0.51100000  0.31200000  0.69700000       0.053
   0.51100000  0.31200000  0.67700000       0.053
   0.49100000  0.31200000  0.69700000       0.053
   0.50100000  0.30200000  0.67700000       0.053
   0.50100000  0.32200000  0.69700000       0.053
   0.50100000  0.32200000  0.67700000       0.053
   0.50100000  0.30200000  0.69700000       0.053
 
 position of ions in fractional coordinates (direct lattice) 
   0.87500000  0.87500000  0.87500000
   0.12500000  0.12500000  0.12500000
 
 position of ions in cartesian coordinates  (Angst):
   3.88916850  2.75005850  6.73623650
   0.55559550  0.39286550  0.96231950
 


--------------------------------------------------------------------------------------------------------


 k-point  1 :   0.5010 0.3120 0.6870  plane waves:    1342
 k-point  2 :   0.4910 0.3120 0.6870  plane waves:    1341
 k-point  3 :   0.5110 0.3120 0.6870  plane waves:    1344
 k-point  4 :   0.5010 0.3020 0.6870  plane waves:    1341
 k-point  5 :   0.5010 0.3220 0.6870  plane waves:    1340
 k-point  6 :   0.5010 0.3120 0.6770  plane waves:    1341
 k-point  7 :   0.5010 0.3120 0.6970  plane waves:    1341
 k-point  8 :   0.4910 0.3020 0.6870  plane waves:    1341
 k-point  9 :   0.5110 0.3220 0.6870  plane waves:    1341
 k-point 10 :   0.5110 0.3020 0.6870  plane waves:    1344
 k-point 11 :   0.4910 0.3220 0.6870  plane waves:    1344
 k-point 12 :   0.4910 0.3120 0.6770  plane waves:    1340
 k-point 13 :   0.5110 0.3120 0.6970  plane waves:    1342
 k-point 14 :   0.5110 0.3120 0.6770  plane waves:    1345
 k-point 15 :   0.4910 0.3120 0.6970  plane waves:    1342
 k-point 16 :   0.5010 0.3020 0.6770  plane waves:    1342
 k-point 17 :   0.5010 0.3220 0.6970  plane waves:    1341
 k-point 18 :   0.5010 0.3220 0.6770  plane waves:    1344
 k-point 19 :   0.5010 0.3020 0.6970  plane waves:    1344

 maximum number of plane-waves:      1345
 maximum index in each direction: 
   IXMAX=    7   IYMAX=    7   IZMAX=    6
   IXMIN=   -8   IYMIN=   -7   IZMIN=   -8


 total amount of memory used by VASP MPI-rank0    42666. kBytes
=======================================================================

   base      :      30000. kBytes
   nonl-proj :       1678. kBytes
   grid      :       6018. kBytes
   one-center:          6. kBytes
   wavefun   :       4964. kBytes
 
     INWAV:  cpu time    0.0000: real time    0.0000
 Broyden mixing: mesh for mixing (old mesh)
   NGX = 15   NGY = 15   NGZ = 15
  (NGX  = 48   NGY  = 48   NGZ  = 48)
  gives a total of   3375 points

 initial charge density was supplied:
 charge density of overlapping atoms calculated
 number of electron       8.0000000 magnetization 
 keeping initial charge density in first step


--------------------------------------------------------------------------------------------------------


 Maximum index for augmentation-charges        11057 (set IRDMAX)


--------------------------------------------------------------------------------------------------------


 First call to EWALD:  gamma=   0.517
 Maximum number of real-space cells 3x 3x 3
 Maximum number of reciprocal cells 3x 3x 3

    FEWALD:  cpu time    0.0009: real time    0.0008


--------------------------------------- Iteration      1(   1)  ---------------------------------------


    POTLOK:  cpu time    0.0327: real time    0.0296
    SETDIJ:  cpu time    0.0020: real time    0.0018
     EDDAV:  cpu time    0.2841: real time    0.2564
       DOS:  cpu time    0.0005: real time    0.0005
    --------------------------------------------
      LOOP:  cpu time    0.3192: real time    0.2883

 eigenvalue-minimisations  :   456
 total energy-change (2. order) : 0.1028867E+01  (-0.3339882E+03)
 number of electron       8.0000000 magnetization 
 augmentation part        8.0000000 magnetization 

 Free energy of the ion-electron system (eV)
  ---------------------------------------------------
  alpha Z        PSCENC =         3.33880741
  Ewald energy   TEWEN  =      -227.98820643
  -Hartree energ DENC   =       -11.11484531
  -exchange      EXHF   =         0.00000000
  -V(xc)+E(xc)   XCENC  =       -18.63153637
  PAW double counting   =       176.24759923     -141.06103558
  entropy T*S    EENTRO =        -0.00000000
  eigenvalues    EBANDS =        14.10496457
  atomic energy  EATOM  =       206.13311910
  Solvation  Ediel_sol  =         0.00000000
  ---------------------------------------------------
  free energy    TOTEN  =         1.02886662 eV

  energy without entropy =        1.02886662  energy(sigma->0) =        1.02886662


--------------------------------------------------------------------------------------------------------




--------------------------------------- Iteration      1(   2)  ---------------------------------------


     EDDAV:  cpu time    0.3478: real time    0.3131
       DOS:  cpu time    0.0006: real time    0.0005
    --------------------------------------------
      LOOP:  cpu time    0.3484: real time    0.3136

 eigenvalue-minimisations  :   604
 total energy-change (2. order) :-0.1609358E+02  (-0.1585080E+02)
 number of electron       8.0000000 magnetization 
 augmentation part        8.0000000 magnetization 

 Free energy of the ion-electron system (eV)
  ---------------------------------------------------
  alpha Z        PSCENC =         3.33880741
  Ewald energy   TEWEN  =      -227.98820643
  -Hartree energ DENC   =       -11.11484531
  -exchange      EXHF   =         0.00000000
  -V(xc)+E(xc)   XCENC  =       -18.63153637
  PAW double counting   =       176.24759923     -141.06103558
  entropy T*S    EENTRO =        -0.00000000
  eigenvalues    EBANDS =        -1.98861180
  atomic energy  EATOM  =       206.13311910
  Solvation  Ediel_sol  =         0.00000000
  ---------------------------------------------------
  free energy    TOTEN  =       -15.06470975 eV

  energy without entropy =      -15.06470975  energy(sigma->0) =      -15.06470975


--------------------------------------------------------------------------------------------------------




--------------------------------------- Iteration      1(   3)  ---------------------------------------


     EDDAV:  cpu time    0.3345: real time    0.3012
       DOS:  cpu time    0.0007: real time    0.0006
    --------------------------------------------
      LOOP:  cpu time    0.3352: real time    0.3017

 eigenvalue-minimisations  :   580
 total energy-change (2. order) :-0.4381665E+00  (-0.4374416E+00)
 number of electron       8.0000000 magnetization 
 augmentation part        8.0000000 magnetization 

 Free energy of the ion-electron system (eV)
  ---------------------------------------------------
  alpha Z        PSCENC =         3.33880741
  Ewald energy   TEWEN  =      -227.98820643
  -Hartree energ DENC   =       -11.11484531
  -exchange      EXHF   =         0.00000000
  -V(xc)+E(xc)   XCENC  =       -18.63153637
  PAW double counting   =       176.24759923     -141.06103558
  entropy T*S    EENTRO =        -0.00000000
  eigenvalues    EBANDS =        -2.42677832
  atomic energy  EATOM  =       206.13311910
  Solvation  Ediel_sol  =         0.00000000
  ---------------------------------------------------
  free energy    TOTEN  =       -15.50287627 eV

  energy without entropy =      -15.50287627  energy(sigma->0) =      -15.50287627


--------------------------------------------------------------------------------------------------------




--------------------------------------- Iteration      1(   4)  ---------------------------------------


     EDDAV:  cpu time    0.3208: real time    0.2888
       DOS:  cpu time    0.0007: real time    0.0006
    --------------------------------------------
      LOOP:  cpu time    0.3215: real time    0.2894

 eigenvalue-minimisations  :   548
 total energy-change (2. order) :-0.3423821E-02  (-0.3423624E-02)
 number of electron       8.0000000 magnetization 
 augmentation part        8.0000000 magnetization 

 Free energy of the ion-electron system (eV)
  ---------------------------------------------------
  alpha Z        PSCENC =         3.33880741
  Ewald energy   TEWEN  =      -227.98820643
  -Hartree energ DENC   =       -11.11484531
  -exchange      EXHF   =         0.00000000
  -V(xc)+E(xc)   XCENC  =       -18.63153637
  PAW double counting   =       176.24759923     -141.06103558
  entropy T*S    EENTRO =        -0.00000000
  eigenvalues    EBANDS =        -2.43020214
  atomic energy  EATOM  =       206.13311910
  Solvation  Ediel_sol  =         0.00000000
  ---------------------------------------------------
  free energy    TOTEN  =       -15.50630009 eV

  energy without entropy =      -15.50630009  energy(sigma->0) =      -15.50630009


--------------------------------------------------------------------------------------------------------




--------------------------------------- Iteration      1(   5)  ---------------------------------------


     EDDAV:  cpu time    0.3443: real time    0.3099
       DOS:  cpu time    0.0007: real time    0.0006
    CHARGE:  cpu time    0.0156: real time    0.0140
    MIXING:  cpu time    0.0011: real time    0.0010
    --------------------------------------------
      LOOP:  cpu time    0.3617: real time    0.3255

 eigenvalue-minimisations  :   592
 total energy-change (2. order) :-0.3773529E-04  (-0.3773543E-04)
 number of electron       7.9999999 magnetization 
 augmentation part       -0.4834446 magnetization 

 Broyden mixing:
  rms(total) = 0.43795E+00    rms(broyden)= 0.43795E+00
  rms(prec ) = 0.67579E+00
  weight for this iteration     100.00

 Free energy of the ion-electron system (eV)
  ---------------------------------------------------
  alpha Z        PSCENC =         3.33880741
  Ewald energy   TEWEN  =      -227.98820643
  -Hartree energ DENC   =       -11.11484531
  -exchange      EXHF   =         0.00000000
  -V(xc)+E(xc)   XCENC  =       -18.63153637
  PAW double counting   =       176.24759923     -141.06103558
  entropy T*S    EENTRO =        -0.00000000
  eigenvalues    EBANDS =        -2.43023988
  atomic energy  EATOM  =       206.13311910
  Solvation  Ediel_sol  =         0.00000000
  ---------------------------------------------------
  free energy    TOTEN  =       -15.50633783 eV

  energy without entropy =      -15.50633783  energy(sigma->0) =      -15.50633783


--------------------------------------------------------------------------------------------------------




--------------------------------------- Iteration      1(   6)  ---------------------------------------


    POTLOK:  cpu time    0.0314: real time    0.0283
    SETDIJ:  cpu time    0.0022: real time    0.0020
     EDDAV:  cpu time    0.3257: real time    0.2932
       DOS:  cpu time    0.0007: real time    0.0006
    CHARGE:  cpu time    0.0151: real time    0.0136
    MIXING:  cpu time    0.0012: real time    0.0011
    --------------------------------------------
      LOOP:  cpu time    0.3764: real time    0.3388

 eigenvalue-minimisations  :   552
 total energy-change (2. order) : 0.3237724E-01  (-0.1441142E-02)
 number of electron       7.9999999 magnetization 
 augmentation part       -0.4815554 magnetization 

 Broyden mixing:
  rms(total) = 0.25980E+00    rms(broyden)= 0.25980E+00
  rms(prec ) = 0.40421E+00
  weight for this iteration     100.00

 eigenvalues of (default mixing * dielectric matrix)
  average eigenvalue GAMMA=   2.4524
  2.4524

 Free energy of the ion-electron system (eV)
  ---------------------------------------------------
  alpha Z        PSCENC =         3.33880741
  Ewald energy   TEWEN  =      -227.98820643
  -Hartree energ DENC   =       -11.80709072
  -exchange      EXHF   =         0.00000000
  -V(xc)+E(xc)   XCENC  =       -18.48216539
  PAW double counting   =       375.52518534     -340.41008259
  entropy T*S    EENTRO =        -0.00000000
  eigenvalues    EBANDS =        -1.78352731
  atomic energy  EATOM  =       206.13311910
  Solvation  Ediel_sol  =         0.00000000
  ---------------------------------------------------
  free energy    TOTEN  =       -15.47396059 eV

  energy without entropy =      -15.47396059  energy(sigma->0) =      -15.47396059


--------------------------------------------------------------------------------------------------------




--------------------------------------- Iteration      1(   7)  ---------------------------------------


    POTLOK:  cpu time    0.0312: real time    0.0281
    SETDIJ:  cpu time    0.0020: real time    0.0018
     EDDAV:  cpu time    0.3485: real time    0.3138
       DOS:  cpu time    0.0007: real time    0.0006
    CHARGE:  cpu time    0.0153: real time    0.0137
    MIXING:  cpu time    0.0012: real time    0.0011
    --------------------------------------------
      LOOP:  cpu time    0.3990: real time    0.3591

 eigenvalue-minimisations  :   604
 total energy-change (2. order) : 0.1775435E-01  (-0.3009192E-02)
 number of electron       7.9999999 magnetization 
 augmentation part       -0.4796663 magnetization 

 Broyden mixing:
  rms(total) = 0.17563E-01    rms(broyden)= 0.17563E-01
  rms(prec ) = 0.27870E-01
  weight for this iteration     100.00

 eigenvalues of (default mixing * dielectric matrix)
  average eigenvalue GAMMA=   1.8841
  1.4150  2.3532

 Free energy of the ion-electron system (eV)
  ---------------------------------------------------
  alpha Z        PSCENC =         3.33880741
  Ewald energy   TEWEN  =      -227.98820643
  -Hartree energ DENC   =       -12.93792756
  -exchange      EXHF   =         0.00000000
  -V(xc)+E(xc)   XCENC  =       -18.23399475
  PAW double counting   =       831.42631478     -796.40910606
  entropy T*S    EENTRO =        -0.00000000
  eigenvalues    EBANDS =        -0.78521273
  atomic energy  EATOM  =       206.13311910
  Solvation  Ediel_sol  =         0.00000000
  ---------------------------------------------------
  free energy    TOTEN  =       -15.45620624 eV

  energy without entropy =      -15.45620624  energy(sigma->0) =      -15.45620624


--------------------------------------------------------------------------------------------------------




--------------------------------------- Iteration      1(   8)  ---------------------------------------


    POTLOK:  cpu time    0.0311: real time    0.0280
    SETDIJ:  cpu time    0.0020: real time    0.0018
     EDDAV:  cpu time    0.3157: real time    0.2841
       DOS:  cpu time    0.0007: real time    0.0006
    CHARGE:  cpu time    0.0152: real time    0.0137
    MIXING:  cpu time    0.0014: real time    0.0012
    --------------------------------------------
      LOOP:  cpu time    0.3660: real time    0.3294

 eigenvalue-minimisations  :   528
 total energy-change (2. order) :-0.1096350E-03  (-0.1611181E-03)
 number of electron       7.9999999 magnetization 
 augmentation part       -0.4804275 magnetization 

 Broyden mixing:
  rms(total) = 0.84686E-02    rms(broyden)= 0.84686E-02
  rms(prec ) = 0.11589E-01
  weight for this iteration     100.00

 eigenvalues of (default mixing * dielectric matrix)
  average eigenvalue GAMMA=   2.2655
  2.8805  1.9580  1.9580

 Free energy of the ion-electron system (eV)
  ---------------------------------------------------
  alpha Z        PSCENC =         3.33880741
  Ewald energy   TEWEN  =      -227.98820643
  -Hartree energ DENC   =       -12.87157156
  -exchange      EXHF   =         0.00000000
  -V(xc)+E(xc)   XCENC  =       -18.23651437
  PAW double counting   =       800.49746486     -765.46586731
  entropy T*S    EENTRO =        -0.00000000
  eigenvalues    EBANDS =        -0.86354758
  atomic energy  EATOM  =       206.13311910
  Solvation  Ediel_sol  =         0.00000000
  ---------------------------------------------------
  free energy    TOTEN  =       -15.45631587 eV

  energy without entropy =      -15.45631587  energy(sigma->0) =      -15.45631587


--------------------------------------------------------------------------------------------------------




--------------------------------------- Iteration      1(   9)  ---------------------------------------


    POTLOK:  cpu time    0.0312: real time    0.0281
    SETDIJ:  cpu time    0.0020: real time    0.0018
     EDDAV:  cpu time    0.3052: real time    0.2747
       DOS:  cpu time    0.0007: real time    0.0006
    CHARGE:  cpu time    0.0152: real time    0.0137
    MIXING:  cpu time    0.0014: real time    0.0012
    --------------------------------------------
      LOOP:  cpu time    0.3557: real time    0.3201

 eigenvalue-minimisations  :   504
 total energy-change (2. order) :-0.2082387E-04  (-0.3506659E-05)
 number of electron       7.9999999 magnetization 
 augmentation part       -0.4804709 magnetization 

 Broyden mixing:
  rms(total) = 0.48284E-02    rms(broyden)= 0.48284E-02
  rms(prec ) = 0.51317E-02
  weight for this iteration     100.00

 eigenvalues of (default mixing * dielectric matrix)
  average eigenvalue GAMMA=   2.0958
  0.9951  2.6782  2.6782  2.0315

 Free energy of the ion-electron system (eV)
  ---------------------------------------------------
  alpha Z        PSCENC =         3.33880741
  Ewald energy   TEWEN  =      -227.98820643
  -Hartree energ DENC   =       -12.90336336
  -exchange      EXHF   =         0.00000000
  -V(xc)+E(xc)   XCENC  =       -18.22921448
  PAW double counting   =       801.25026030     -766.21948431
  entropy T*S    EENTRO =        -0.00000000
  eigenvalues    EBANDS =        -0.83825492
  atomic energy  EATOM  =       206.13311910
  Solvation  Ediel_sol  =         0.00000000
  ---------------------------------------------------
  free energy    TOTEN  =       -15.45633669 eV

  energy without entropy =      -15.45633669  energy(sigma->0) =      -15.45633669


--------------------------------------------------------------------------------------------------------




--------------------------------------- Iteration      1(  10)  ---------------------------------------


    POTLOK:  cpu time    0.0309: real time    0.0278
    SETDIJ:  cpu time    0.0019: real time    0.0017
     EDDAV:  cpu time    0.2313: real time    0.2083
       DOS:  cpu time    0.0007: real time    0.0006
    --------------------------------------------
      LOOP:  cpu time    0.2648: real time    0.2384

 eigenvalue-minimisations  :   336
 total energy-change (2. order) :-0.1752425E-05  (-0.2931504E-06)
 number of electron       7.9999999 magnetization 
 augmentation part       -0.4804709 magnetization 

 Free energy of the ion-electron system (eV)
  ---------------------------------------------------
  alpha Z        PSCENC =         3.33880741
  Ewald energy   TEWEN  =      -227.98820643
  -Hartree energ DENC   =       -12.90349960
  -exchange      EXHF   =         0.00000000
  -V(xc)+E(xc)   XCENC  =       -18.23007024
  PAW double counting   =       791.70928098     -756.67805851
  entropy T*S    EENTRO =        -0.00000000
  eigenvalues    EBANDS =        -0.83771116
  atomic energy  EATOM  =       206.13311910
  Solvation  Ediel_sol  =         0.00000000
  ---------------------------------------------------
  free energy    TOTEN  =       -15.45633845 eV

  energy without entropy =      -15.45633845  energy(sigma->0) =      -15.45633845


--------------------------------------------------------------------------------------------------------




 average (electrostatic) potential at core
  the test charge radii are     0.9892
  (the norm of the test charge is              1.0000)
       1 -83.8943       2 -83.8943
 
 
 
 E-fermi :   3.5836     XC(G=0):  -9.5184     alpha+bet :-11.8943


 k-point     1 :       0.5010    0.3120    0.6870
  band No.  band energies     occupation 
      1      -2.9394      2.00000
      2      -1.4583      2.00000
      3       1.4705      2.00000
      4       2.5034      2.00000
      5       9.1212      0.00000
      6       9.3751      0.00000
      7      11.1948      0.00000
      8      11.6231      0.00000
      9      13.8858      0.00000
     10      16.6585      0.00000
     11      17.6029      0.00000
     12      19.7388      0.00000

 k-point     2 :       0.4910    0.3120    0.6870
  band No.  band energies     occupation 
      1      -2.9401      2.00000
      2      -1.4576      2.00000
      3       1.4674      2.00000
      4       2.5086      2.00000
      5       9.0516      0.00000
      6       9.4469      0.00000
      7      11.1962      0.00000
      8      11.6240      0.00000
      9      13.8833      0.00000
     10      16.6109      0.00000
     11      17.6509      0.00000
     12      19.7418      0.00000

 k-point     3 :       0.5110    0.3120    0.6870
  band No.  band energies     occupation 
      1      -2.9398      2.00000
      2      -1.4580      2.00000
      3       1.4653      2.00000
      4       2.5122      2.00000
      5       9.0043      0.00000
      6       9.4956      0.00000
      7      11.1925      0.00000
      8      11.6294      0.00000
      9      13.8819      0.00000
     10      16.5853      0.00000
     11      17.6768      0.00000
     12      19.7442      0.00000

 k-point     4 :       0.5010    0.3020    0.6870
  band No.  band energies     occupation 
      1      -2.8803      2.00000
      2      -1.4995      2.00000
      3       1.4625      2.00000
      4       2.4354      2.00000
      5       9.1163      0.00000
      6       9.4959      0.00000
      7      11.0583      0.00000
      8      11.5609      0.00000
      9      14.0849      0.00000
     10      16.6560      0.00000
     11      17.6488      0.00000
     12      19.8670      0.00000

 k-point     5 :       0.5010    0.3220    0.6870
  band No.  band energies     occupation 
      1      -2.9979      2.00000
      2      -1.4202      2.00000
      3       1.4857      2.00000
      4       2.5734      2.00000
      5       9.0536      0.00000
      6       9.3301      0.00000
      7      11.2760      0.00000
      8      11.7475      0.00000
      9      13.6855      0.00000
     10      16.6536      0.00000
     11      17.5603      0.00000
     12      19.5883      0.00000

 k-point     6 :       0.5010    0.3120    0.6770
  band No.  band energies     occupation 
      1      -2.9975      2.00000
      2      -1.4207      2.00000
      3       1.4854      2.00000
      4       2.5744      2.00000
      5       9.0148      0.00000
      6       9.3697      0.00000
      7      11.2616      0.00000
      8      11.7628      0.00000
      9      13.6854      0.00000
     10      16.6499      0.00000
     11      17.5641      0.00000
     12      19.5894      0.00000

 k-point     7 :       0.5010    0.3120    0.6970
  band No.  band energies     occupation 
      1      -2.8807      2.00000
      2      -1.4990      2.00000
      3       1.4627      2.00000
      4       2.4344      2.00000
      5       9.1526      0.00000
      6       9.4594      0.00000
      7      11.0720      0.00000
      8      11.5460      0.00000
      9      14.0850      0.00000
     10      16.6592      0.00000
     11      17.6457      0.00000
     12      19.8660      0.00000

 k-point     8 :       0.4910    0.3020    0.6870
  band No.  band energies     occupation 
      1      -2.8838      2.00000
      2      -1.4958      2.00000
      3       1.4613      2.00000
      4       2.4370      2.00000
      5       9.1665      0.00000
      6       9.4464      0.00000
      7      11.0744      0.00000
      8      11.5443      0.00000
      9      14.0828      0.00000
     10      16.6256      0.00000
     11      17.6801      0.00000
     12      19.8664      0.00000

 k-point     9 :       0.5110    0.3220    0.6870
  band No.  band energies     occupation 
      1      -3.0007      2.00000
      2      -1.4171      2.00000
      3       1.4826      2.00000
      4       2.5783      2.00000
      5       9.0381      0.00000
      6       9.3476      0.00000
      7      11.2906      0.00000
      8      11.7344      0.00000
      9      13.6827      0.00000
     10      16.5907      0.00000
     11      17.6240      0.00000
     12      19.5902      0.00000

 k-point    10 :       0.5110    0.3020    0.6870
  band No.  band energies     occupation 
      1      -2.8783      2.00000
      2      -1.5022      2.00000
      3       1.4555      2.00000
      4       2.4483      2.00000
      5       8.9624      0.00000
      6       9.6538      0.00000
      7      11.0445      0.00000
      8      11.5827      0.00000
      9      14.0801      0.00000
     10      16.5756      0.00000
     11      17.7292      0.00000
     12      19.8761      0.00000

 k-point    11 :       0.4910    0.3220    0.6870
  band No.  band energies     occupation 
      1      -2.9959      2.00000
      2      -1.4224      2.00000
      3       1.4804      2.00000
      4       2.5822      2.00000
      5       8.9098      0.00000
      6       9.4786      0.00000
      7      11.2613      0.00000
      8      11.7665      0.00000
      9      13.6825      0.00000
     10      16.5876      0.00000
     11      17.6269      0.00000
     12      19.5950      0.00000

 k-point    12 :       0.4910    0.3120    0.6770
  band No.  band energies     occupation 
      1      -3.0007      2.00000
      2      -1.4171      2.00000
      3       1.4844      2.00000
      4       2.5758      2.00000
      5       9.0691      0.00000
      6       9.3155      0.00000
      7      11.2789      0.00000
      8      11.7455      0.00000
      9      13.6839      0.00000
     10      16.6152      0.00000
     11      17.5992      0.00000
     12      19.5889      0.00000

 k-point    13 :       0.5110    0.3120    0.6970
  band No.  band energies     occupation 
      1      -2.8839      2.00000
      2      -1.4956      2.00000
      3       1.4595      2.00000
      4       2.4396      2.00000
      5       9.1382      0.00000
      6       9.4757      0.00000
      7      11.0860      0.00000
      8      11.5335      0.00000
      9      14.0814      0.00000
     10      16.6040      0.00000
     11      17.7018      0.00000
     12      19.8677      0.00000

 k-point    14 :       0.5110    0.3120    0.6770
  band No.  band energies     occupation 
      1      -2.9952      2.00000
      2      -1.4233      2.00000
      3       1.4780      2.00000
      4       2.5866      2.00000
      5       8.8574      0.00000
      6       9.5334      0.00000
      7      11.2450      0.00000
      8      11.7854      0.00000
      9      13.6810      0.00000
     10      16.5581      0.00000
     11      17.6567      0.00000
     12      19.5985      0.00000

 k-point    15 :       0.4910    0.3120    0.6970
  band No.  band energies     occupation 
      1      -2.8790      2.00000
      2      -1.5013      2.00000
      3       1.4577      2.00000
      4       2.4436      2.00000
      5       9.0143      0.00000
      6       9.6005      0.00000
      7      11.0595      0.00000
      8      11.5642      0.00000
      9      14.0817      0.00000
     10      16.6018      0.00000
     11      17.7031      0.00000
     12      19.8726      0.00000

 k-point    16 :       0.5010    0.3020    0.6770
  band No.  band energies     occupation 
      1      -2.9401      2.00000
      2      -1.4579      2.00000
      3       1.4718      2.00000
      4       2.5072      2.00000
      5       8.9764      0.00000
      6       9.5217      0.00000
      7      11.0841      0.00000
      8      11.7407      0.00000
      9      13.8855      0.00000
     10      16.6522      0.00000
     11      17.6093      0.00000
     12      19.7440      0.00000

 k-point    17 :       0.5010    0.3220    0.6970
  band No.  band energies     occupation 
      1      -2.9409      2.00000
      2      -1.4569      2.00000
      3       1.4723      2.00000
      4       2.5051      2.00000
      5       9.0260      0.00000
      6       9.4712      0.00000
      7      11.1052      0.00000
      8      11.7173      0.00000
      9      13.8858      0.00000
     10      16.6591      0.00000
     11      17.6024      0.00000
     12      19.7417      0.00000

 k-point    18 :       0.5010    0.3220    0.6770
  band No.  band energies     occupation 
      1      -3.0544      2.00000
      2      -1.3869      2.00000
      3       1.5065      2.00000
      4       2.6436      2.00000
      5       9.0292      0.00000
      6       9.2448      0.00000
      7      11.4049      0.00000
      8      11.8263      0.00000
      9      13.4845      0.00000
     10      16.6405      0.00000
     11      17.5218      0.00000
     12      19.4269      0.00000

 k-point    19 :       0.5010    0.3020    0.6970
  band No.  band energies     occupation 
      1      -2.8201      2.00000
      2      -1.5440      2.00000
      3       1.4600      2.00000
      4       2.3659      2.00000
      5       9.2227      0.00000
      6       9.5076      0.00000
      7      10.9957      0.00000
      8      11.4246      0.00000
      9      14.2825      0.00000
     10      16.6514      0.00000
     11      17.6931      0.00000
     12      19.9388      0.00000


--------------------------------------------------------------------------------------------------------


 soft charge-density along one line, spin component           1
         0         1         2         3         4         5         6         7         8         9
x     8.4805    0.0000    1.9369    0.0000    0.2694    0.0000    0.0705    0.0000    0.0041    0.0000
x    -0.0011   -0.0000   -0.0005   -0.0000    0.0000   -0.0000    0.0000    0.0000    0.0000   -0.0000
x    -0.0000   -0.0000   -0.0000   -0.0000    0.0000    0.0000
y     8.4805    0.0000    1.9369    0.0000    0.2694    0.0000    0.0705    0.0000    0.0041    0.0000
y    -0.0011   -0.0000   -0.0005   -0.0000    0.0000   -0.0000    0.0000    0.0000    0.0000   -0.0000
y    -0.0000   -0.0000   -0.0000   -0.0000    0.0000    0.0000
z     8.4805    0.0000    1.9369    0.0000    0.2694    0.0000    0.0705    0.0000    0.0041    0.0000
z    -0.0011   -0.0000   -0.0005   -0.0000    0.0000   -0.0000    0.0000    0.0000    0.0000   -0.0000
z    -0.0000   -0.0000   -0.0000   -0.0000    0.0000    0.0000
 total charge-density along one line
x     8.0000    0.0000    1.6468    0.0000    0.2694    0.0000    0.1412    0.0000    0.0235   -0.0000
x    -0.0023   -0.0000   -0.0005   -0.0000   -0.0003   -0.0000    0.0000   -0.0000    0.0001   -0.0000
x    -0.0000   -0.0000    0.0000    0.0000   -0.0000    0.0000    0.0000    0.0000    0.0000    0.0000
x     0.0000    0.0000   -0.0000   -0.0000   -0.0000   -0.0000    0.0000    0.0000   -0.0000   -0.0000
x     0.0000   -0.0000   -0.0000    0.0000   -0.0000    0.0000   -0.0000   -0.0000    0.0000    0.0000
y     8.0000    0.0000    1.6468    0.0000    0.2694    0.0000    0.1412    0.0000    0.0235   -0.0000
y    -0.0023   -0.0000   -0.0005    0.0000   -0.0003   -0.0000    0.0000   -0.0000    0.0001    0.0000
y    -0.0000    0.0000    0.0000   -0.0000   -0.0000    0.0000    0.0000   -0.0000    0.0000    0.0000
y     0.0000    0.0000   -0.0000    0.0000   -0.0000   -0.0000    0.0000   -0.0000   -0.0000   -0.0000
y     0.0000    0.0000   -0.0000    0.0000   -0.0000    0.0000   -0.0000    0.0000    0.0000   -0.0000
z     8.0000    0.0000    1.6468    0.0000    0.2694    0.0000    0.1412   -0.0000    0.0235   -0.0000
z    -0.0023   -0.0000   -0.0005   -0.0000   -0.0003   -0.0000    0.0000   -0.0000    0.0001   -0.0000
z    -0.0000   -0.0000    0.0000    0.0000   -0.0000    0.0000    0.0000   -0.0000   -0.0000    0.0000
z     0.0000   -0.0000   -0.0000   -0.0000   -0.0000   -0.0000   -0.0000   -0.0000   -0.0000   -0.0000
z     0.0000   -0.0000   -0.0000   -0.0000   -0.0000   -0.0000   -0.0000   -0.0000    0.0000   -0.0000
 
 pseudopotential strength for first ion, spin component:           1
 18.474  25.775   0.000   0.000   0.000   0.000   0.000   0.000
 25.775  35.965   0.000   0.000   0.000   0.000   0.000   0.000
  0.000   0.000   4.183  -0.000  -0.000   7.795  -0.000  -0.000
  0.000   0.000  -0.000   4.183  -0.000  -0.000   7.795  -0.000
  0.000   0.000  -0.000  -0.000   4.183  -0.000  -0.000   7.795
  0.000   0.000   7.795  -0.000  -0.000  14.537  -0.000  -0.000
  0.000   0.000  -0.000   7.795  -0.000  -0.000  14.537  -0.000
  0.000   0.000  -0.000  -0.000   7.795  -0.000  -0.000  14.537
 total augmentation occupancy for first ion, spin component:           1
  4.751  -1.435   0.000  -0.000   0.000  -0.000   0.000  -0.000
 -1.435   0.459   0.000   0.000  -0.000  -0.000   0.000  -0.000
 -0.000   0.000   2.986   0.000   0.000  -0.727   0.000  -0.000
  0.000   0.000  -0.000   2.986   0.000  -0.000  -0.727  -0.000
 -0.000  -0.000   0.000   0.000   2.986  -0.000  -0.000  -0.727
  0.000   0.000  -0.727   0.000  -0.000   0.181  -0.000   0.000
 -0.000   0.000   0.000  -0.727  -0.000   0.000   0.181   0.000
 -0.000   0.000  -0.000  -0.000  -0.727   0.000  -0.000   0.181


------------------------ aborting loop because EDIFF is reached ----------------------------------------


 


 total charge     
 
# of ion       s       p       d       tot
------------------------------------------
    1        0.817   0.843   0.000   1.659
    2        0.817   0.843   0.000   1.659
--------------------------------------------------
tot          1.633   1.685   0.000   3.319
 
    CHARGE:  cpu time    0.0153: real time    0.0138
    FORLOC:  cpu time    0.0013: real time    0.0012
    FORNL :  cpu time    0.0193: real time    0.0173
    STRESS:  cpu time    0.0557: real time    0.0502
    FORCOR:  cpu time    0.0316: real time    0.0284
    FORHAR:  cpu time    0.0062: real time    0.0056
    MIXING:  cpu time    0.0014: real time    0.0013
    OFIELD:  cpu time    0.0000: real time    0.0000

  FORCE on cell =-STRESS in cart. coord.  units (eV):
  Direction    XX          YY          ZZ          XY          YZ          ZX
  --------------------------------------------------------------------------------------
  Alpha Z     3.33881     3.33881     3.33881
  Ewald     -75.99608   -75.99616   -75.99607     0.00001    -0.00000     0.00000
  Hartree     4.30160     4.30160     4.30160     0.00000     0.00000     0.00000
  E(xc)     -24.93043   -24.93043   -24.93043    -0.00000    -0.00000    -0.00000
  Local     -27.66025   -27.66023   -27.66023     0.00000     0.00001     0.00001
  n-local    78.89690    78.44042    78.16358    -1.50024     1.12566    -1.56352
  augment   -12.22656   -12.22656   -12.22658    -0.00000    -0.00001    -0.00001
  Kinetic    53.21447    51.37772    48.31338     1.02654    -3.97035     0.99305
  Fock        0.00000     0.00000     0.00000     0.00000     0.00000     0.00000
  -------------------------------------------------------------------------------------
  Total      -3.70410    -3.70410    -3.70410    -0.00000    -0.00000    -0.00000
  in kB    -147.15326  -147.15338  -147.15322    -0.00000    -0.00000    -0.00000
  external pressure =     -147.15 kB  Pullay stress =        0.00 kB


 VOLUME and BASIS-vectors are now :
 -----------------------------------------------------------------------------
  energy-cutoff  :      600.00
  volume of cell :       40.33
      direct lattice vectors                 reciprocal lattice vectors
     3.333573000  0.000000000  1.924639000     0.299978432 -0.106058350  0.000000000
     1.111191000  3.142924000  1.924639000     0.000000000  0.318175050  0.000000000
     0.000000000  0.000000000  3.849278000    -0.149989216 -0.106058350  0.259788979

  length of vectors
     3.849278403  3.849279412  3.849278000     0.318175161  0.318175050  0.318175190


 FORCES acting on ions
    electron-ion (+dipol)            ewald-force                    non-local-force                 convergence-correction
 -----------------------------------------------------------------------------------------------
   0.475E-05 0.217E-04 0.242E-06   -.892E-05 -.418E-04 -.429E-15   0.174E-17 -.301E-16 -.546E-16   0.296E-08 0.143E-07 -.199E-09
   -.475E-05 -.217E-04 -.242E-06   0.892E-05 0.418E-04 0.408E-15   0.145E-16 0.451E-16 0.664E-16   -.296E-08 -.143E-07 0.199E-09
 -----------------------------------------------------------------------------------------------
   -.363E-14 0.884E-14 -.143E-13   -.341E-15 0.468E-16 -.212E-16   0.162E-16 0.150E-16 0.119E-16   -.176E-14 -.101E-14 -.192E-14
 
 
 POSITION                                       TOTAL-FORCE (eV/Angst)
 -----------------------------------------------------------------------------------
      3.88917      2.75006      6.73624        -0.000000     -0.000000      0.000000
      0.55560      0.39287      0.96232         0.000000      0.000000     -0.000000
 -----------------------------------------------------------------------------------
    total drift:                               -0.000000      0.000000     -0.000000


--------------------------------------------------------------------------------------------------------



  FREE ENERGIE OF THE ION-ELECTRON SYSTEM (eV)
  ---------------------------------------------------
  free  energy   TOTEN  =       -15.45633845 eV

  energy  without entropy=      -15.45633845  energy(sigma->0) =      -15.45633845
 


--------------------------------------------------------------------------------------------------------


    POTLOK:  cpu time    0.0337: real time    0.0303


--------------------------------------------------------------------------------------------------------


 writing wavefunctions
     LOOP+:  cpu time    3.7002: real time    3.3324
    4ORBIT:  cpu time    0.0000: real time    0.0000
 


 total charge     
 
# of ion       s       p       d       tot
------------------------------------------
    1        0.817   0.843   0.000   1.659
    2        0.817   0.843   0.000   1.659
--------------------------------------------------
tot          1.633   1.685   0.000   3.319
 

 total amount of memory used by VASP MPI-rank0    42666. kBytes
=======================================================================

   base      :      30000. kBytes
   nonl-proj :       1678. kBytes
   grid      :       6018. kBytes
   one-center:          6. kBytes
   wavefun   :       4964. kBytes
 
  
  
 General timing and accounting informations for this job:
 ========================================================
  
                  Total CPU time used (sec):        3.962
                            User time (sec):        3.906
                          System time (sec):        0.057
                         Elapsed time (sec):        3.574
  
                   Maximum memory used (kb):       30908.
                   Average memory used (kb):           0.
  
                          Minor page faults:        15309
                          Major page faults:           12
                 Voluntary context switches:           31
