 vasp.5.4.4.18Apr17-6-g9f103f2a35 (build Sep 03 2019 17:22:03) complex          
  
 executed on             LinuxIFC date 2024.12.15  13:26:51
 serial version


--------------------------------------------------------------------------------------------------------


 INCAR:
 POTCAR:    PAW_PBE Si 05Jan2001                  
 POTCAR:    PAW_PBE Si 05Jan2001                  
   SHA256 =  79d9987ad8750f624c4d6acb2a16d13abf6a777132adc04dc6c8399be72b42bb Si
   COPYR  = (c) Copyright 05Jan2001 Georg Kresse                                
   COPYR  = This file is part of the software VASP. Any use, copying, and all ot
   COPYR  = If you do not have a valid VASP license, you may not use, copy or di
   VRHFIN =Si: s2p2                                                             
   LEXCH  = PE                                                                  
   EATOM  =   103.0669 eV,    7.5752 Ry                                         
                                                                                
   TITEL  = PAW_PBE Si 05Jan2001                                                
   LULTRA =        F    use ultrasoft PP ?                                      
   IUNSCR =        1    unscreen: 0-lin 1-nonlin 2-no                           
   RPACOR =    1.500    partial core radius                                     
   POMASS =   28.085; ZVAL   =    4.000    mass and valenz                      
   RCORE  =    1.900    outmost cutoff radius                                   
   RWIGS  =    2.480; RWIGS  =    1.312    wigner-seitz radius (au A)           
   ENMAX  =  245.345; ENMIN  =  184.009 eV                                      
   ICORE  =        2    local potential                                         
   LCOR   =        T    correct aug charges                                     
   LPAW   =        T    paw PP                                                  
   EAUG   =  322.069                                                            
   DEXC   =    0.000                                                            
   RMAX   =    1.950    core radius for proj-oper                               
   RAUG   =    1.300    factor for augmentation sphere                          
   RDEP   =    1.993    radius for radial grids                                 
   RDEPT  =    1.837    core radius for aug-charge                              
                                                                                
   Atomic configuration                                                         
    6 entries                                                                   
     n  l   j            E        occ.                                          
     1  0  0.50     -1785.8828   2.0000                                         
     2  0  0.50      -139.4969   2.0000                                         
     2  1  1.50       -95.5546   6.0000                                         
     3  0  0.50       -10.8127   2.0000                                         
     3  1  0.50        -4.0811   2.0000                                         
     3  2  1.50        -4.0817   0.0000                                         
   Description                                                                  
     l       E           TYP  RCUT    TYP  RCUT                                 
     0    -10.8127223     23  1.900                                             
     0     -7.6451159     23  1.900                                             
     1     -4.0811372     23  1.900                                             
     1      2.4879257     23  1.900                                             
     2     -4.0817478      7  1.900                                             
  local pseudopotential read in
  partial core-charges read in
  partial kinetic energy density read in
  atomic valenz-charges read in
  non local Contribution for L=           0  read in
    real space projection operators read in
  non local Contribution for L=           0  read in
    real space projection operators read in
  non local Contribution for L=           1  read in
    real space projection operators read in
  non local Contribution for L=           1  read in
    real space projection operators read in
    PAW grid and wavefunctions read in
 
   number of l-projection  operators is LMAX  =           4
   number of lm-projection operators is LMMAX =           8
 
  PAW_PBE Si 05Jan2001                  :
 energy of atom  1       EATOM= -103.0669
 kinetic energy error for atom=    0.0003 (will be added to EATOM!!)
 
 
 POSCAR: i2a=[Si] ; Si                           
  positions in direct lattice
  No initial velocities read in
 exchange correlation table for  LEXCH =        8
   RHO(1)=    0.500       N(1)  =     2000
   RHO(2)=  100.500       N(2)  =     4000
 


--------------------------------------------------------------------------------------------------------


 ion  position               nearest neighbor table
   1  0.875  0.875  0.875-   2 2.36   2 2.36   2 2.36   2 2.36
   2  0.125  0.125  0.125-   1 2.36   1 2.36   1 2.36   1 2.36
 
  LATTYP: Found a face centered cubic cell.
 ALAT       =     5.4437011529
  
  Lattice vectors:
  
 A1 = (   3.3335730000,   0.0000000000,   1.9246390000)
 A2 = (   1.1111910000,   3.1429240000,   1.9246390000)
 A3 = (   0.0000000000,   0.0000000000,   3.8492780000)


Analysis of symmetry for initial positions (statically):
=====================================================================
 Subroutine PRICEL returns:
 Original cell was already a primitive cell.
 

 Routine SETGRP: Setting up the symmetry group for a 
 face centered cubic supercell.


 Subroutine GETGRP returns: Found 48 space group operations
 (whereof 12 operations were pure point group operations)
 out of a pool of 48 trial point group operations.


The static configuration has the point symmetry D_3d.
 The point group associated with its full space group is O_h .


Analysis of symmetry for dynamics (positions and initial velocities):
=====================================================================
 Subroutine PRICEL returns:
 Original cell was already a primitive cell.
 

 Routine SETGRP: Setting up the symmetry group for a 
 face centered cubic supercell.


 Subroutine GETGRP returns: Found 48 space group operations
 (whereof 12 operations were pure point group operations)
 out of a pool of 48 trial point group operations.


The dynamic configuration has the point symmetry D_3d.
 The point group associated with its full space group is O_h .


 Subroutine INISYM returns: Found 48 space group operations
 (whereof 12 operations are pure point group operations),
 and found     1 'primitive' translations

 
 
 KPOINTS: Automatic Mesh                          

Automatic generation of k-mesh.
Space group operators:
 irot       det(A)        alpha          n_x          n_y          n_z        tau_x        tau_y        tau_z
    1     1.000000     0.000000     1.000000     0.000000     0.000000     0.000000     0.000000     0.000000
    2    -1.000000     0.000000     1.000000     0.000000     0.000000     0.000000     0.000000     0.000000
    3     1.000000   120.000000    -0.471404    -0.333333    -0.816497     0.000000     0.000000     0.000000
    4    -1.000000   120.000000    -0.471404    -0.333333    -0.816497     0.000000     0.000000     0.000000
    5     1.000000   120.000000     0.471405     0.333333     0.816496     0.000000     0.000000     0.000000
    6    -1.000000   120.000000     0.471405     0.333333     0.816496     0.000000     0.000000     0.000000
    7     1.000000   180.000000     0.288675     0.816496    -0.500000     0.000000     0.000000     0.000000
    8    -1.000000   180.000000     0.288675     0.816496    -0.500000     0.000000     0.000000     0.000000
    9     1.000000   180.000000     0.577350    -0.816496     0.000000     0.000000     0.000000     0.000000
   10    -1.000000   180.000000     0.577350    -0.816496     0.000000     0.000000     0.000000     0.000000
   11     1.000000   180.000000     0.866025    -0.000000    -0.500000     0.000000     0.000000     0.000000
   12    -1.000000   180.000000     0.866025    -0.000000    -0.500000     0.000000     0.000000     0.000000
   13     1.000000    90.000000    -0.816497    -0.577350    -0.000000     0.500000     0.000000     0.000000
   14    -1.000000    90.000000    -0.816497    -0.577350    -0.000000     0.500000     0.000000     0.000000
   15     1.000000   180.000000     0.866025    -0.000000     0.500000     0.500000     0.000000     0.000000
   16    -1.000000   180.000000     0.866025    -0.000000     0.500000     0.500000     0.000000     0.000000
   17     1.000000    90.000000     0.408248    -0.577350     0.707107     0.500000     0.000000     0.000000
   18    -1.000000    90.000000     0.408248    -0.577350     0.707107     0.500000     0.000000     0.000000
   19     1.000000   180.000000     0.816497     0.577350     0.000000     0.000000     0.000000     0.500000
   20    -1.000000   180.000000     0.816497     0.577350     0.000000     0.000000     0.000000     0.500000
   21     1.000000   120.000000     0.942809    -0.333333     0.000000     0.000000     0.000000     0.500000
   22    -1.000000   120.000000     0.942809    -0.333333     0.000000     0.000000     0.000000     0.500000
   23     1.000000   120.000000     0.000000    -1.000000     0.000000     0.000000     0.000000     0.500000
   24    -1.000000   120.000000     0.000000    -1.000000     0.000000     0.000000     0.000000     0.500000
   25     1.000000    90.000000     0.816497     0.577350    -0.000000     0.000000     0.500000     0.000000
   26    -1.000000    90.000000     0.816497     0.577350    -0.000000     0.000000     0.500000     0.000000
   27     1.000000    90.000000     0.408249    -0.577350    -0.707107     0.000000     0.500000     0.000000
   28    -1.000000    90.000000     0.408249    -0.577350    -0.707107     0.000000     0.500000     0.000000
   29     1.000000   179.999999     0.288675     0.816496     0.500000     0.000000     0.500000     0.000000
   30    -1.000000   179.999999     0.288675     0.816496     0.500000     0.000000     0.500000     0.000000
   31     1.000000   120.000000     0.000000     1.000000     0.000000     0.500000     0.000000     0.000000
   32    -1.000000   120.000000     0.000000     1.000000     0.000000     0.500000     0.000000     0.000000
   33     1.000000   120.000000     0.471404     0.333333    -0.816497     0.500000     0.000000     0.000000
   34    -1.000000   120.000000     0.471404     0.333333    -0.816497     0.500000     0.000000     0.000000
   35     1.000000   180.000000    -0.408248     0.577350     0.707107     0.500000     0.000000     0.000000
   36    -1.000000   180.000000    -0.408248     0.577350     0.707107     0.500000     0.000000     0.000000
   37     1.000000    90.000000    -0.408249     0.577350    -0.707107     0.000000     0.000000     0.500000
   38    -1.000000    90.000000    -0.408249     0.577350    -0.707107     0.000000     0.000000     0.500000
   39     1.000000   180.000000    -0.000000     0.000000     1.000000     0.000000     0.000000     0.500000
   40    -1.000000   180.000000    -0.000000     0.000000     1.000000     0.000000     0.000000     0.500000
   41     1.000000    90.000000    -0.408248     0.577350     0.707107     0.000000     0.000000     0.500000
   42    -1.000000    90.000000    -0.408248     0.577350     0.707107     0.000000     0.000000     0.500000
   43     1.000000   120.000000    -0.942809     0.333333     0.000000     0.000000     0.500000     0.000000
   44    -1.000000   120.000000    -0.942809     0.333333     0.000000     0.000000     0.500000     0.000000
   45     1.000000   180.000000    -0.408248     0.577350    -0.707107     0.000000     0.500000     0.000000
   46    -1.000000   180.000000    -0.408248     0.577350    -0.707107     0.000000     0.500000     0.000000
   47     1.000000   120.000000    -0.471405    -0.333333     0.816496     0.000000     0.500000     0.000000
   48    -1.000000   120.000000    -0.471405    -0.333333     0.816496     0.000000     0.500000     0.000000
 
 Subroutine IBZKPT returns following result:
 ===========================================
 
 Found     20 irreducible k-points:
 
 Following reciprocal coordinates:
            Coordinates               Weight
  0.000000  0.000000  0.000000      1.000000
  0.142857 -0.000000  0.000000      8.000000
  0.285714  0.000000  0.000000      8.000000
  0.428571 -0.000000  0.000000      8.000000
  0.142857  0.142857  0.000000      6.000000
  0.285714  0.142857  0.000000     24.000000
  0.428571  0.142857  0.000000     24.000000
 -0.428571  0.142857  0.000000     24.000000
 -0.285714  0.142857  0.000000     24.000000
 -0.142857  0.142857  0.000000     12.000000
  0.285714  0.285714  0.000000      6.000000
  0.428571  0.285714  0.000000     24.000000
 -0.428571  0.285714  0.000000     24.000000
 -0.285714  0.285714  0.000000     12.000000
  0.428571  0.428571  0.000000      6.000000
 -0.428571  0.428571  0.000000     12.000000
  0.428571  0.285714  0.142857     24.000000
 -0.428571  0.285714  0.142857     48.000000
 -0.428571  0.428571  0.142857     24.000000
 -0.285714  0.428571  0.142857     24.000000
 
 Following cartesian coordinates:
            Coordinates               Weight
  0.000000  0.000000  0.000000      1.000000
  0.042854 -0.015151  0.000000      8.000000
  0.085708 -0.030302  0.000000      8.000000
  0.128562 -0.045454  0.000000      8.000000
  0.042854  0.030302  0.000000      6.000000
  0.085708  0.015151  0.000000     24.000000
  0.128562  0.000000  0.000000     24.000000
 -0.128562  0.090907  0.000000     24.000000
 -0.085708  0.075756  0.000000     24.000000
 -0.042854  0.060605  0.000000     12.000000
  0.085708  0.060605  0.000000      6.000000
  0.128562  0.045454  0.000000     24.000000
 -0.128562  0.136361  0.000000     24.000000
 -0.085708  0.121210  0.000000     12.000000
  0.128562  0.090907  0.000000      6.000000
 -0.128562  0.181814  0.000000     12.000000
  0.107135  0.030302  0.037113     24.000000
 -0.149989  0.121210  0.037113     48.000000
 -0.149989  0.166663  0.037113     24.000000
 -0.107135  0.151512  0.037113     24.000000
 


--------------------------------------------------------------------------------------------------------




 Dimension of arrays:
   k-points           NKPTS =     20   k-points in BZ     NKDIM =     20   number of bands    NBANDS=     12
   number of dos      NEDOS =    301   number of ions     NIONS =      2
   non local maximal  LDIM  =      4   non local SUM 2l+1 LMDIM =      8
   total plane-waves  NPLWV =  13824
   max r-space proj   IRMAX =      1   max aug-charges    IRDMAX=  11659
   dimension x,y,z NGX =    24 NGY =   24 NGZ =   24
   dimension x,y,z NGXF=    48 NGYF=   48 NGZF=   48
   support grid    NGXF=    48 NGYF=   48 NGZF=   48
   ions per type =               2
   NGX,Y,Z   is equivalent  to a cutoff of  10.37, 10.37, 10.37 a.u.
   NGXF,Y,Z  is equivalent  to a cutoff of  20.73, 20.73, 20.73 a.u.

 SYSTEM =  scale: scaled "images" for Si.rho.['sp  
 POSCAR =  i2a=[Si] ; Si                           

 Startparameter for this run:
   NWRITE =      2    write-flag & timer
   PREC   = normal    normal or accurate (medium, high low for compatibility)
   ISTART =      0    job   : 0-new  1-cont  2-samecut
   ICHARG =      2    charge: 1-file 2-atom 10-const
   ISPIN  =      1    spin polarized calculation?
   LNONCOLLINEAR =      F non collinear calculations
   LSORBIT =      F    spin-orbit coupling
   INIWAV =      1    electr: 0-lowe 1-rand  2-diag
   LASPH  =      F    aspherical Exc in radial PAW
   METAGGA=      F    non-selfconsistent MetaGGA calc.

 Electronic Relaxation 1
   ENCUT  =  600.0 eV  44.10 Ry    6.64 a.u.   7.69  7.69  7.69*2*pi/ulx,y,z
   ENINI  =  600.0     initial cutoff
   ENAUG  =  700.0 eV  augmentation charge cutoff
   NELM   =     60;   NELMIN=  2; NELMDL= -5     # of ELM steps 
   EDIFF  = 0.1E-04   stopping-criterion for ELM
   LREAL  =      F    real-space projection
   NLSPLINE    = F    spline interpolate recip. space projectors
   LCOMPAT=      F    compatible to vasp.4.4
   GGA_COMPAT  = T    GGA compatible to vasp.4.4-vasp.4.6
   LMAXPAW     = -100 max onsite density
   LMAXMIX     =    2 max onsite mixed and CHGCAR
   VOSKOWN=      0    Vosko Wilk Nusair interpolation
   ROPT   =    0.00000
 Ionic relaxation
   EDIFFG = 0.1E-03   stopping-criterion for IOM
   NSW    =      0    number of steps for IOM
   NBLOCK =      1;   KBLOCK =      1    inner block; outer block 
   IBRION =     -1    ionic relax: 0-MD 1-quasi-New 2-CG
   NFREE  =      0    steps in history (QN), initial steepest desc. (CG)
   ISIF   =      2    stress and relaxation
   IWAVPR =      0    prediction:  0-non 1-charg 2-wave 3-comb
   ISYM   =      2    0-nonsym 1-usesym 2-fastsym
   LCORR  =      T    Harris-Foulkes like correction to forces

   POTIM  = 0.5000    time-step for ionic-motion
   TEIN   =    0.0    initial temperature
   TEBEG  =    0.0;   TEEND  =   0.0 temperature during run
   SMASS  =  -3.00    Nose mass-parameter (am)
   estimated Nose-frequenzy (Omega)   =  0.10E-29 period in steps =****** mass=  -0.339E-27a.u.
   SCALEE = 1.0000    scale energy and forces
   NPACO  =    256;   APACO  = 16.0  distance and # of slots for P.C.
   PSTRESS=    0.0 pullay stress

  Mass of Ions in am
   POMASS =  28.09
  Ionic Valenz
   ZVAL   =   4.00
  Atomic Wigner-Seitz radii
   RWIGS  =  -1.00
  virtual crystal weights 
   VCA    =   1.00
   NELECT =       8.0000    total number of electrons
   NUPDOWN=      -1.0000    fix difference up-down

 DOS related values:
   EMIN   =  10.00;   EMAX   =-10.00  energy-range for DOS
   EFERMI =   0.00
   ISMEAR =     0;   SIGMA  =   0.20  broadening in eV -4-tet -1-fermi 0-gaus

 Electronic relaxation 2 (details)
   IALGO  =     38    algorithm
   LDIAG  =      T    sub-space diagonalisation (order eigenvalues)
   LSUBROT=      F    optimize rotation matrix (better conditioning)
   TURBO    =      0    0=normal 1=particle mesh
   IRESTART =      0    0=no restart 2=restart with 2 vectors
   NREBOOT  =      0    no. of reboots
   NMIN     =      0    reboot dimension
   EREF     =   0.00    reference energy to select bands
   IMIX   =      4    mixing-type and parameters
     AMIX     =   0.40;   BMIX     =  1.00
     AMIX_MAG =   1.60;   BMIX_MAG =  1.00
     AMIN     =   0.10
     WC   =   100.;   INIMIX=   1;  MIXPRE=   1;  MAXMIX= -45

 Intra band minimization:
   WEIMIN = 0.0000     energy-eigenvalue tresh-hold
   EBREAK =  0.21E-06  absolut break condition
   DEPER  =   0.30     relativ break condition  

   TIME   =   0.40     timestep for ELM

  volume/ion in A,a.u.               =      20.16       136.08
  Fermi-wavevector in a.u.,A,eV,Ry     =   0.954766  1.804247 12.402783  0.911579
  Thomas-Fermi vector in A             =   2.083543
 
 Write flags
   LWAVE        =      T    write WAVECAR
   LDOWNSAMPLE  =      F    k-point downsampling of WAVECAR
   LCHARG       =      T    write CHGCAR
   LVTOT        =      F    write LOCPOT, total local potential
   LVHAR        =      F    write LOCPOT, Hartree potential only
   LELF         =      F    write electronic localiz. function (ELF)
   LORBIT       =      0    0 simple, 1 ext, 2 COOP (PROOUT), +10 PAW based schemes


 Dipole corrections
   LMONO  =      F    monopole corrections only (constant potential shift)
   LDIPOL =      F    correct potential (dipole corrections)
   IDIPOL =      0    1-x, 2-y, 3-z, 4-all directions 
   EPSILON=  1.0000000 bulk dielectric constant

 Exchange correlation treatment:
   GGA     =    --    GGA type
   LEXCH   =     8    internal setting for exchange type
   VOSKOWN=      0    Vosko Wilk Nusair interpolation
   LHFCALC =     F    Hartree Fock is set to
   LHFONE  =     F    Hartree Fock one center treatment
   AEXX    =    0.0000 exact exchange contribution

 Linear response parameters
   LEPSILON=     F    determine dielectric tensor
   LRPA    =     F    only Hartree local field effects (RPA)
   LNABLA  =     F    use nabla operator in PAW spheres
   LVEL    =     F    velocity operator in full k-point grid
   LINTERFAST=   F  fast interpolation
   KINTER  =     0    interpolate to denser k-point grid
   CSHIFT  =0.1000    complex shift for real part using Kramers Kronig
   OMEGAMAX=  -1.0    maximum frequency
   DEG_THRESHOLD= 0.2000000E-02 threshold for treating states as degnerate
   RTIME   =   -0.100 relaxation time in fs
  (WPLASMAI=    0.000 imaginary part of plasma frequency in eV, 0.658/RTIME)
   DFIELD  = 0.0000000 0.0000000 0.0000000 field for delta impulse in time
 
 Orbital magnetization related:
   ORBITALMAG=     F  switch on orbital magnetization
   LCHIMAG   =     F  perturbation theory with respect to B field
   DQ        =  0.001000  dq finite difference perturbation B field
   LLRAUG    =     F  two centre corrections for induced B field



--------------------------------------------------------------------------------------------------------


 Static calculation
 charge density and potential will be updated during run
 non-spin polarized calculation
 Variant of blocked Davidson
 Davidson routine will perform the subspace rotation
 perform sub-space diagonalisation
    after iterative eigenvector-optimisation
 modified Broyden-mixing scheme, WC =      100.0
 initial mixing is a Kerker type mixing with AMIX =  0.4000 and BMIX =      1.0000
 Hartree-type preconditioning will be used
 using additional bands            8
 reciprocal scheme for non local part
 use partial core corrections
 calculate Harris-corrections to forces 
   (improved forces if not selfconsistent)
 use gradient corrections 
 use of overlap-Matrix (Vanderbilt PP)
 Gauss-broadening in eV      SIGMA  =   0.20


--------------------------------------------------------------------------------------------------------


  energy-cutoff  :      600.00
  volume of cell :       40.33
      direct lattice vectors                 reciprocal lattice vectors
     3.333573000  0.000000000  1.924639000     0.299978432 -0.106058350  0.000000000
     1.111191000  3.142924000  1.924639000     0.000000000  0.318175050  0.000000000
     0.000000000  0.000000000  3.849278000    -0.149989216 -0.106058350  0.259788979

  length of vectors
     3.849278403  3.849279412  3.849278000     0.318175161  0.318175050  0.318175190


 
 k-points in units of 2pi/SCALE and weight: Automatic Mesh                          
   0.00000000  0.00000000  0.00000000       0.003
   0.04285406 -0.01515119  0.00000000       0.023
   0.08570812 -0.03030239  0.00000000       0.023
   0.12856218 -0.04545358  0.00000000       0.023
   0.04285406  0.03030239  0.00000000       0.017
   0.08570812  0.01515119  0.00000000       0.070
   0.12856218  0.00000000  0.00000000       0.070
  -0.12856218  0.09090716  0.00000000       0.070
  -0.08570812  0.07575596  0.00000000       0.070
  -0.04285406  0.06060477  0.00000000       0.035
   0.08570812  0.06060477  0.00000000       0.017
   0.12856218  0.04545358  0.00000000       0.070
  -0.12856218  0.13636074  0.00000000       0.070
  -0.08570812  0.12120954  0.00000000       0.035
   0.12856218  0.09090716  0.00000000       0.017
  -0.12856218  0.18181431  0.00000000       0.035
   0.10713515  0.03030239  0.03711271       0.070
  -0.14998922  0.12120954  0.03711271       0.140
  -0.14998922  0.16666312  0.03711271       0.070
  -0.10713515  0.15151193  0.03711271       0.070
 
 k-points in reciprocal lattice and weights: Automatic Mesh                          
   0.00000000  0.00000000  0.00000000       0.003
   0.14285714 -0.00000000  0.00000000       0.023
   0.28571429  0.00000000  0.00000000       0.023
   0.42857143 -0.00000000  0.00000000       0.023
   0.14285714  0.14285714  0.00000000       0.017
   0.28571429  0.14285714  0.00000000       0.070
   0.42857143  0.14285714  0.00000000       0.070
  -0.42857143  0.14285714  0.00000000       0.070
  -0.28571429  0.14285714  0.00000000       0.070
  -0.14285714  0.14285714  0.00000000       0.035
   0.28571429  0.28571429  0.00000000       0.017
   0.42857143  0.28571429  0.00000000       0.070
  -0.42857143  0.28571429  0.00000000       0.070
  -0.28571429  0.28571429  0.00000000       0.035
   0.42857143  0.42857143  0.00000000       0.017
  -0.42857143  0.42857143  0.00000000       0.035
   0.42857143  0.28571429  0.14285714       0.070
  -0.42857143  0.28571429  0.14285714       0.140
  -0.42857143  0.42857143  0.14285714       0.070
  -0.28571429  0.42857143  0.14285714       0.070
 
 position of ions in fractional coordinates (direct lattice) 
   0.87500000  0.87500000  0.87500000
   0.12500000  0.12500000  0.12500000
 
 position of ions in cartesian coordinates  (Angst):
   3.88916850  2.75005850  6.73623650
   0.55559550  0.39286550  0.96231950
 


--------------------------------------------------------------------------------------------------------


 k-point  1 :   0.0000 0.0000 0.0000  plane waves:    1363
 k-point  2 :   0.1429-0.0000 0.0000  plane waves:    1360
 k-point  3 :   0.2857 0.0000 0.0000  plane waves:    1356
 k-point  4 :   0.4286-0.0000 0.0000  plane waves:    1344
 k-point  5 :   0.1429 0.1429 0.0000  plane waves:    1343
 k-point  6 :   0.2857 0.1429 0.0000  plane waves:    1348
 k-point  7 :   0.4286 0.1429 0.0000  plane waves:    1357
 k-point  8 :  -0.4286 0.1429 0.0000  plane waves:    1346
 k-point  9 :  -0.2857 0.1429 0.0000  plane waves:    1350
 k-point 10 :  -0.1429 0.1429 0.0000  plane waves:    1353
 k-point 11 :   0.2857 0.2857 0.0000  plane waves:    1343
 k-point 12 :   0.4286 0.2857 0.0000  plane waves:    1331
 k-point 13 :  -0.4286 0.2857 0.0000  plane waves:    1341
 k-point 14 :  -0.2857 0.2857 0.0000  plane waves:    1338
 k-point 15 :   0.4286 0.4286 0.0000  plane waves:    1339
 k-point 16 :  -0.4286 0.4286 0.0000  plane waves:    1338
 k-point 17 :   0.4286 0.2857 0.1429  plane waves:    1337
 k-point 18 :  -0.4286 0.2857 0.1429  plane waves:    1341
 k-point 19 :  -0.4286 0.4286 0.1429  plane waves:    1344
 k-point 20 :  -0.2857 0.4286 0.1429  plane waves:    1359

 maximum number of plane-waves:      1363
 maximum index in each direction: 
   IXMAX=    8   IYMAX=    7   IZMAX=    7
   IXMIN=   -8   IYMIN=   -8   IZMIN=   -7


 total amount of memory used by VASP MPI-rank0    43107. kBytes
=======================================================================

   base      :      30000. kBytes
   nonl-proj :       1788. kBytes
   grid      :       6018. kBytes
   one-center:          6. kBytes
   wavefun   :       5295. kBytes
 
     INWAV:  cpu time    0.0000: real time    0.0000
 Broyden mixing: mesh for mixing (old mesh)
   NGX = 15   NGY = 15   NGZ = 15
  (NGX  = 48   NGY  = 48   NGZ  = 48)
  gives a total of   3375 points

 initial charge density was supplied:
 charge density of overlapping atoms calculated
 number of electron       8.0000000 magnetization 
 keeping initial charge density in first step


--------------------------------------------------------------------------------------------------------


 Maximum index for augmentation-charges        11057 (set IRDMAX)


--------------------------------------------------------------------------------------------------------


 First call to EWALD:  gamma=   0.517
 Maximum number of real-space cells 3x 3x 3
 Maximum number of reciprocal cells 3x 3x 3

    FEWALD:  cpu time    0.0009: real time    0.0009


--------------------------------------- Iteration      1(   1)  ---------------------------------------


    POTLOK:  cpu time    0.0324: real time    0.0326
    SETDIJ:  cpu time    0.0022: real time    0.0022
     EDDAV:  cpu time    0.2974: real time    0.2974
       DOS:  cpu time    0.0008: real time    0.0008
    --------------------------------------------
      LOOP:  cpu time    0.3327: real time    0.3329

 eigenvalue-minimisations  :   480
 total energy-change (2. order) : 0.5883413E+01  (-0.3484674E+03)
 number of electron       8.0000000 magnetization 
 augmentation part        8.0000000 magnetization 

 Free energy of the ion-electron system (eV)
  ---------------------------------------------------
  alpha Z        PSCENC =         3.33880741
  Ewald energy   TEWEN  =      -227.98820643
  -Hartree energ DENC   =       -11.11484531
  -exchange      EXHF   =         0.00000000
  -V(xc)+E(xc)   XCENC  =       -18.63153637
  PAW double counting   =       176.24759923     -141.06103558
  entropy T*S    EENTRO =        -0.01282522
  eigenvalues    EBANDS =        18.97233632
  atomic energy  EATOM  =       206.13311910
  Solvation  Ediel_sol  =         0.00000000
  ---------------------------------------------------
  free energy    TOTEN  =         5.88341314 eV

  energy without entropy =        5.89623836  energy(sigma->0) =        5.88982575


--------------------------------------------------------------------------------------------------------




--------------------------------------- Iteration      1(   2)  ---------------------------------------


     EDDAV:  cpu time    0.3492: real time    0.3492
       DOS:  cpu time    0.0008: real time    0.0008
    --------------------------------------------
      LOOP:  cpu time    0.3499: real time    0.3499

 eigenvalue-minimisations  :   600
 total energy-change (2. order) :-0.1640424E+02  (-0.1550856E+02)
 number of electron       8.0000000 magnetization 
 augmentation part        8.0000000 magnetization 

 Free energy of the ion-electron system (eV)
  ---------------------------------------------------
  alpha Z        PSCENC =         3.33880741
  Ewald energy   TEWEN  =      -227.98820643
  -Hartree energ DENC   =       -11.11484531
  -exchange      EXHF   =         0.00000000
  -V(xc)+E(xc)   XCENC  =       -18.63153637
  PAW double counting   =       176.24759923     -141.06103558
  entropy T*S    EENTRO =        -0.00021705
  eigenvalues    EBANDS =         2.55548352
  atomic energy  EATOM  =       206.13311910
  Solvation  Ediel_sol  =         0.00000000
  ---------------------------------------------------
  free energy    TOTEN  =       -10.52083149 eV

  energy without entropy =      -10.52061444  energy(sigma->0) =      -10.52072296


--------------------------------------------------------------------------------------------------------




--------------------------------------- Iteration      1(   3)  ---------------------------------------


     EDDAV:  cpu time    0.3592: real time    0.3592
       DOS:  cpu time    0.0008: real time    0.0008
    --------------------------------------------
      LOOP:  cpu time    0.3600: real time    0.3600

 eigenvalue-minimisations  :   624
 total energy-change (2. order) :-0.4917736E+00  (-0.4904704E+00)
 number of electron       8.0000000 magnetization 
 augmentation part        8.0000000 magnetization 

 Free energy of the ion-electron system (eV)
  ---------------------------------------------------
  alpha Z        PSCENC =         3.33880741
  Ewald energy   TEWEN  =      -227.98820643
  -Hartree energ DENC   =       -11.11484531
  -exchange      EXHF   =         0.00000000
  -V(xc)+E(xc)   XCENC  =       -18.63153637
  PAW double counting   =       176.24759923     -141.06103558
  entropy T*S    EENTRO =        -0.00001937
  eigenvalues    EBANDS =         2.06351222
  atomic energy  EATOM  =       206.13311910
  Solvation  Ediel_sol  =         0.00000000
  ---------------------------------------------------
  free energy    TOTEN  =       -11.01260510 eV

  energy without entropy =      -11.01258574  energy(sigma->0) =      -11.01259542


--------------------------------------------------------------------------------------------------------




--------------------------------------- Iteration      1(   4)  ---------------------------------------


     EDDAV:  cpu time    0.3348: real time    0.3348
       DOS:  cpu time    0.0008: real time    0.0008
    --------------------------------------------
      LOOP:  cpu time    0.3357: real time    0.3357

 eigenvalue-minimisations  :   568
 total energy-change (2. order) :-0.3531181E-02  (-0.3530911E-02)
 number of electron       8.0000000 magnetization 
 augmentation part        8.0000000 magnetization 

 Free energy of the ion-electron system (eV)
  ---------------------------------------------------
  alpha Z        PSCENC =         3.33880741
  Ewald energy   TEWEN  =      -227.98820643
  -Hartree energ DENC   =       -11.11484531
  -exchange      EXHF   =         0.00000000
  -V(xc)+E(xc)   XCENC  =       -18.63153637
  PAW double counting   =       176.24759923     -141.06103558
  entropy T*S    EENTRO =        -0.00001909
  eigenvalues    EBANDS =         2.05998076
  atomic energy  EATOM  =       206.13311910
  Solvation  Ediel_sol  =         0.00000000
  ---------------------------------------------------
  free energy    TOTEN  =       -11.01613628 eV

  energy without entropy =      -11.01611720  energy(sigma->0) =      -11.01612674


--------------------------------------------------------------------------------------------------------




--------------------------------------- Iteration      1(   5)  ---------------------------------------


     EDDAV:  cpu time    0.3667: real time    0.3667
       DOS:  cpu time    0.0008: real time    0.0008
    CHARGE:  cpu time    0.0168: real time    0.0168
    MIXING:  cpu time    0.0011: real time    0.0011
    --------------------------------------------
      LOOP:  cpu time    0.3854: real time    0.3854

 eigenvalue-minimisations  :   640
 total energy-change (2. order) :-0.3568509E-04  (-0.3568452E-04)
 number of electron       7.9999999 magnetization 
 augmentation part       -0.4699599 magnetization 

 Broyden mixing:
  rms(total) = 0.48414E+00    rms(broyden)= 0.48414E+00
  rms(prec ) = 0.94901E+00
  weight for this iteration     100.00

 Free energy of the ion-electron system (eV)
  ---------------------------------------------------
  alpha Z        PSCENC =         3.33880741
  Ewald energy   TEWEN  =      -227.98820643
  -Hartree energ DENC   =       -11.11484531
  -exchange      EXHF   =         0.00000000
  -V(xc)+E(xc)   XCENC  =       -18.63153637
  PAW double counting   =       176.24759923     -141.06103558
  entropy T*S    EENTRO =        -0.00001909
  eigenvalues    EBANDS =         2.05994507
  atomic energy  EATOM  =       206.13311910
  Solvation  Ediel_sol  =         0.00000000
  ---------------------------------------------------
  free energy    TOTEN  =       -11.01617197 eV

  energy without entropy =      -11.01615288  energy(sigma->0) =      -11.01616243


--------------------------------------------------------------------------------------------------------




--------------------------------------- Iteration      1(   6)  ---------------------------------------


    POTLOK:  cpu time    0.0309: real time    0.0309
    SETDIJ:  cpu time    0.0022: real time    0.0022
     EDDAV:  cpu time    0.3230: real time    0.3230
       DOS:  cpu time    0.0009: real time    0.0009
    CHARGE:  cpu time    0.0166: real time    0.0166
    MIXING:  cpu time    0.0012: real time    0.0012
    --------------------------------------------
      LOOP:  cpu time    0.3747: real time    0.3748

 eigenvalue-minimisations  :   540
 total energy-change (2. order) : 0.1228474E+00  (-0.6587905E-02)
 number of electron       7.9999999 magnetization 
 augmentation part       -0.4643147 magnetization 

 Broyden mixing:
  rms(total) = 0.29480E+00    rms(broyden)= 0.29480E+00
  rms(prec ) = 0.56363E+00
  weight for this iteration     100.00

 eigenvalues of (default mixing * dielectric matrix)
  average eigenvalue GAMMA=   2.5486
  2.5486

 Free energy of the ion-electron system (eV)
  ---------------------------------------------------
  alpha Z        PSCENC =         3.33880741
  Ewald energy   TEWEN  =      -227.98820643
  -Hartree energ DENC   =       -12.60864345
  -exchange      EXHF   =         0.00000000
  -V(xc)+E(xc)   XCENC  =       -18.39680690
  PAW double counting   =       376.80070537     -341.72222519
  entropy T*S    EENTRO =        -0.00008484
  eigenvalues    EBANDS =         3.55001033
  atomic energy  EATOM  =       206.13311910
  Solvation  Ediel_sol  =         0.00000000
  ---------------------------------------------------
  free energy    TOTEN  =       -10.89332459 eV

  energy without entropy =      -10.89323975  energy(sigma->0) =      -10.89328217


--------------------------------------------------------------------------------------------------------




--------------------------------------- Iteration      1(   7)  ---------------------------------------


    POTLOK:  cpu time    0.0308: real time    0.0308
    SETDIJ:  cpu time    0.0022: real time    0.0022
     EDDAV:  cpu time    0.3174: real time    0.3174
       DOS:  cpu time    0.0008: real time    0.0008
    CHARGE:  cpu time    0.0165: real time    0.0165
    MIXING:  cpu time    0.0012: real time    0.0012
    --------------------------------------------
      LOOP:  cpu time    0.3689: real time    0.3689

 eigenvalue-minimisations  :   528
 total energy-change (2. order) : 0.5633967E-01  (-0.1288950E-01)
 number of electron       7.9999999 magnetization 
 augmentation part       -0.4571997 magnetization 

 Broyden mixing:
  rms(total) = 0.17756E-01    rms(broyden)= 0.17756E-01
  rms(prec ) = 0.40834E-01
  weight for this iteration     100.00

 eigenvalues of (default mixing * dielectric matrix)
  average eigenvalue GAMMA=   2.0884
  1.8013  2.3755

 Free energy of the ion-electron system (eV)
  ---------------------------------------------------
  alpha Z        PSCENC =         3.33880741
  Ewald energy   TEWEN  =      -227.98820643
  -Hartree energ DENC   =       -15.04914569
  -exchange      EXHF   =         0.00000000
  -V(xc)+E(xc)   XCENC  =       -18.00505372
  PAW double counting   =       850.80748997     -815.86927278
  entropy T*S    EENTRO =        -0.00039965
  eigenvalues    EBANDS =         5.79567687
  atomic energy  EATOM  =       206.13311910
  Solvation  Ediel_sol  =         0.00000000
  ---------------------------------------------------
  free energy    TOTEN  =       -10.83698492 eV

  energy without entropy =      -10.83658527  energy(sigma->0) =      -10.83678510


--------------------------------------------------------------------------------------------------------




--------------------------------------- Iteration      1(   8)  ---------------------------------------


    POTLOK:  cpu time    0.0308: real time    0.0308
    SETDIJ:  cpu time    0.0022: real time    0.0022
     EDDAV:  cpu time    0.3177: real time    0.3177
       DOS:  cpu time    0.0008: real time    0.0008
    CHARGE:  cpu time    0.0165: real time    0.0165
    MIXING:  cpu time    0.0013: real time    0.0013
    --------------------------------------------
      LOOP:  cpu time    0.3693: real time    0.3693

 eigenvalue-minimisations  :   528
 total energy-change (2. order) :-0.1317118E-02  (-0.6157984E-03)
 number of electron       7.9999999 magnetization 
 augmentation part       -0.4580439 magnetization 

 Broyden mixing:
  rms(total) = 0.83101E-02    rms(broyden)= 0.83101E-02
  rms(prec ) = 0.14337E-01
  weight for this iteration     100.00

 eigenvalues of (default mixing * dielectric matrix)
  average eigenvalue GAMMA=   2.3386
  3.0824  1.9666  1.9666

 Free energy of the ion-electron system (eV)
  ---------------------------------------------------
  alpha Z        PSCENC =         3.33880741
  Ewald energy   TEWEN  =      -227.98820643
  -Hartree energ DENC   =       -14.97286047
  -exchange      EXHF   =         0.00000000
  -V(xc)+E(xc)   XCENC  =       -18.00530356
  PAW double counting   =       858.59179988     -823.62554954
  entropy T*S    EENTRO =        -0.00033561
  eigenvalues    EBANDS =         5.69022718
  atomic energy  EATOM  =       206.13311910
  Solvation  Ediel_sol  =         0.00000000
  ---------------------------------------------------
  free energy    TOTEN  =       -10.83830204 eV

  energy without entropy =      -10.83796643  energy(sigma->0) =      -10.83813423


--------------------------------------------------------------------------------------------------------




--------------------------------------- Iteration      1(   9)  ---------------------------------------


    POTLOK:  cpu time    0.0307: real time    0.0307
    SETDIJ:  cpu time    0.0021: real time    0.0021
     EDDAV:  cpu time    0.3351: real time    0.3351
       DOS:  cpu time    0.0009: real time    0.0009
    CHARGE:  cpu time    0.0166: real time    0.0166
    MIXING:  cpu time    0.0013: real time    0.0013
    --------------------------------------------
      LOOP:  cpu time    0.3867: real time    0.3867

 eigenvalue-minimisations  :   568
 total energy-change (2. order) :-0.2053344E-03  (-0.1860490E-04)
 number of electron       7.9999999 magnetization 
 augmentation part       -0.4581351 magnetization 

 Broyden mixing:
  rms(total) = 0.61168E-02    rms(broyden)= 0.61168E-02
  rms(prec ) = 0.72122E-02
  weight for this iteration     100.00

 eigenvalues of (default mixing * dielectric matrix)
  average eigenvalue GAMMA=   2.1146
  2.8143  2.3892  2.3892  0.8658

 Free energy of the ion-electron system (eV)
  ---------------------------------------------------
  alpha Z        PSCENC =         3.33880741
  Ewald energy   TEWEN  =      -227.98820643
  -Hartree energ DENC   =       -15.02608176
  -exchange      EXHF   =         0.00000000
  -V(xc)+E(xc)   XCENC  =       -17.99521310
  PAW double counting   =       865.59096661     -830.62288434
  entropy T*S    EENTRO =        -0.00033011
  eigenvalues    EBANDS =         5.73131524
  atomic energy  EATOM  =       206.13311910
  Solvation  Ediel_sol  =         0.00000000
  ---------------------------------------------------
  free energy    TOTEN  =       -10.83850737 eV

  energy without entropy =      -10.83817727  energy(sigma->0) =      -10.83834232


--------------------------------------------------------------------------------------------------------




--------------------------------------- Iteration      1(  10)  ---------------------------------------


    POTLOK:  cpu time    0.0310: real time    0.0310
    SETDIJ:  cpu time    0.0021: real time    0.0021
     EDDAV:  cpu time    0.3322: real time    0.3322
       DOS:  cpu time    0.0008: real time    0.0008
    CHARGE:  cpu time    0.0163: real time    0.0163
    MIXING:  cpu time    0.0014: real time    0.0014
    --------------------------------------------
      LOOP:  cpu time    0.3839: real time    0.3839

 eigenvalue-minimisations  :   564
 total energy-change (2. order) :-0.2710221E-04  (-0.2309572E-05)
 number of electron       7.9999999 magnetization 
 augmentation part       -0.4581110 magnetization 

 Broyden mixing:
  rms(total) = 0.66211E-03    rms(broyden)= 0.66211E-03
  rms(prec ) = 0.10989E-02
  weight for this iteration     100.00

 eigenvalues of (default mixing * dielectric matrix)
  average eigenvalue GAMMA=   1.9239
  2.9495  2.4836  2.1349  1.0259  1.0259

 Free energy of the ion-electron system (eV)
  ---------------------------------------------------
  alpha Z        PSCENC =         3.33880741
  Ewald energy   TEWEN  =      -227.98820643
  -Hartree energ DENC   =       -15.03260379
  -exchange      EXHF   =         0.00000000
  -V(xc)+E(xc)   XCENC  =       -17.99523945
  PAW double counting   =       855.81086889     -820.84295139
  entropy T*S    EENTRO =        -0.00032669
  eigenvalues    EBANDS =         5.73799788
  atomic energy  EATOM  =       206.13311910
  Solvation  Ediel_sol  =         0.00000000
  ---------------------------------------------------
  free energy    TOTEN  =       -10.83853447 eV

  energy without entropy =      -10.83820779  energy(sigma->0) =      -10.83837113


--------------------------------------------------------------------------------------------------------




--------------------------------------- Iteration      1(  11)  ---------------------------------------


    POTLOK:  cpu time    0.0307: real time    0.0307
    SETDIJ:  cpu time    0.0021: real time    0.0021
     EDDAV:  cpu time    0.2422: real time    0.2422
       DOS:  cpu time    0.0008: real time    0.0008
    --------------------------------------------
      LOOP:  cpu time    0.2759: real time    0.2759

 eigenvalue-minimisations  :   356
 total energy-change (2. order) :-0.5546541E-06  (-0.2208679E-06)
 number of electron       7.9999999 magnetization 
 augmentation part       -0.4581110 magnetization 

 Free energy of the ion-electron system (eV)
  ---------------------------------------------------
  alpha Z        PSCENC =         3.33880741
  Ewald energy   TEWEN  =      -227.98820643
  -Hartree energ DENC   =       -15.03135612
  -exchange      EXHF   =         0.00000000
  -V(xc)+E(xc)   XCENC  =       -17.99522532
  PAW double counting   =       856.01994376     -821.05123737
  entropy T*S    EENTRO =        -0.00032490
  eigenvalues    EBANDS =         5.73594483
  atomic energy  EATOM  =       206.13311910
  Solvation  Ediel_sol  =         0.00000000
  ---------------------------------------------------
  free energy    TOTEN  =       -10.83853503 eV

  energy without entropy =      -10.83821013  energy(sigma->0) =      -10.83837258


--------------------------------------------------------------------------------------------------------




 average (electrostatic) potential at core
  the test charge radii are     0.9892
  (the norm of the test charge is              1.0000)
       1 -83.3260       2 -83.3260
 
 
 
 E-fermi :   6.0293     XC(G=0):  -9.3793     alpha+bet :-11.8943


 k-point     1 :       0.0000    0.0000    0.0000
  band No.  band energies     occupation 
      1      -6.1522      2.00000
      2       5.7565      1.94621
      3       5.7565      1.94621
      4       5.7565      1.94621
      5       8.3181      0.00000
      6       8.3181      0.00000
      7       8.3181      0.00000
      8       9.0479      0.00000
      9      13.4715      0.00000
     10      13.4715      0.00000
     11      13.6874      0.00000
     12      16.9835      0.00000

 k-point     2 :       0.1429   -0.0000    0.0000
  band No.  band energies     occupation 
      1      -5.8877      2.00000
      2       3.8302      2.00000
      3       5.4022      1.99999
      4       5.4022      1.99999
      5       8.1776      0.00000
      6       8.8360      0.00000
      7       8.8360      0.00000
      8      10.7252      0.00000
      9      12.9163      0.00000
     10      12.9163      0.00000
     11      14.6410      0.00000
     12      16.3682      0.00000

 k-point     3 :       0.2857    0.0000    0.0000
  band No.  band energies     occupation 
      1      -5.1257      2.00000
      2       1.2224      2.00000
      3       4.8896      2.00000
      4       4.8896      2.00000
      5       7.6388      0.00000
      6       9.2885      0.00000
      7       9.2885      0.00000
      8      13.1704      0.00000
      9      13.2060      0.00000
     10      13.2060      0.00000
     11      14.6342      0.00000
     12      18.3213      0.00000

 k-point     4 :       0.4286   -0.0000    0.0000
  band No.  band energies     occupation 
      1      -4.0920      2.00000
      2      -0.7976      2.00000
      3       4.6023      2.00000
      4       4.6023      2.00000
      5       7.3133      0.00000
      6       9.1391      0.00000
      7       9.1391      0.00000
      8      13.5364      0.00000
      9      15.2163      0.00000
     10      15.2163      0.00000
     11      16.2657      0.00000
     12      18.2788      0.00000

 k-point     5 :       0.1429    0.1429    0.0000
  band No.  band energies     occupation 
      1      -5.7982      2.00000
      2       4.1216      2.00000
      3       4.7920      2.00000
      4       4.7920      2.00000
      5       7.6405      0.00000
      6       9.7152      0.00000
      7       9.7152      0.00000
      8      10.1448      0.00000
      9      12.2029      0.00000
     10      13.8648      0.00000
     11      15.0591      0.00000
     12      17.5960      0.00000

 k-point     6 :       0.2857    0.1429    0.0000
  band No.  band energies     occupation 
      1      -5.1947      2.00000
      2       2.0094      2.00000
      3       4.2107      2.00000
      4       4.2528      2.00000
      5       7.8329      0.00000
      6       9.6433      0.00000
      7      10.3141      0.00000
      8      10.4965      0.00000
      9      13.8776      0.00000
     10      14.2484      0.00000
     11      15.9550      0.00000
     12      17.8177      0.00000

 k-point     7 :       0.4286    0.1429    0.0000
  band No.  band energies     occupation 
      1      -4.1919      2.00000
      2      -0.1636      2.00000
      3       3.5255      2.00000
      4       4.0647      2.00000
      5       7.8961      0.00000
      6       9.5680      0.00000
      7      10.2826      0.00000
      8      11.5293      0.00000
      9      15.2081      0.00000
     10      15.9722      0.00000
     11      16.6498      0.00000
     12      17.9630      0.00000

 k-point     8 :      -0.4286    0.1429    0.0000
  band No.  band energies     occupation 
      1      -3.6372      2.00000
      2      -1.0226      2.00000
      3       3.1138      2.00000
      4       4.2611      2.00000
      5       7.9931      0.00000
      6       9.4797      0.00000
      7       9.8890      0.00000
      8      13.9071      0.00000
      9      14.4283      0.00000
     10      14.7847      0.00000
     11      16.7123      0.00000
     12      18.8734      0.00000

 k-point     9 :      -0.2857    0.1429    0.0000
  band No.  band energies     occupation 
      1      -4.5581      2.00000
      2       0.5128      2.00000
      3       3.1188      2.00000
      4       4.7718      2.00000
      5       8.3926      0.00000
      6       9.6515      0.00000
      7       9.6806      0.00000
      8      12.3868      0.00000
      9      12.5039      0.00000
     10      15.5811      0.00000
     11      16.9019      0.00000
     12      17.9477      0.00000

 k-point    10 :      -0.1429    0.1429    0.0000
  band No.  band energies     occupation 
      1      -5.4539      2.00000
      2       2.6262      2.00000
      3       3.8060      2.00000
      4       5.3612      2.00000
      5       8.7961      0.00000
      6       9.0463      0.00000
      7       9.3018      0.00000
      8      11.3628      0.00000
      9      11.9676      0.00000
     10      14.2541      0.00000
     11      15.8257      0.00000
     12      17.0265      0.00000

 k-point    11 :       0.2857    0.2857    0.0000
  band No.  band energies     occupation 
      1      -4.7530      2.00000
      2       1.6023      2.00000
      3       3.6341      2.00000
      4       3.6341      2.00000
      5       6.6963      0.00000
      6       8.3728      0.00000
      7      12.1240      0.00000
      8      12.1240      0.00000
      9      14.5060      0.00000
     10      15.0416      0.00000
     11      17.8906      0.00000
     12      19.1001      0.00000

 k-point    12 :       0.4286    0.2857    0.0000
  band No.  band energies     occupation 
      1      -3.8555      2.00000
      2       0.1064      2.00000
      3       2.6617      2.00000
      4       3.3757      2.00000
      5       6.9788      0.00000
      6       8.4596      0.00000
      7      12.3481      0.00000
      8      12.5168      0.00000
      9      16.6217      0.00000
     10      16.9725      0.00000
     11      17.3805      0.00000
     12      17.9405      0.00000

 k-point    13 :      -0.4286    0.2857    0.0000
  band No.  band energies     occupation 
      1      -2.9437      2.00000
      2      -1.0654      2.00000
      3       1.7140      2.00000
      4       3.5434      2.00000
      5       7.2178      0.00000
      6      10.6921      0.00000
      7      12.0191      0.00000
      8      12.0874      0.00000
      9      14.7805      0.00000
     10      14.7964      0.00000
     11      19.1161      0.00000
     12      19.4713      0.00000

 k-point    14 :      -0.2857    0.2857    0.0000
  band No.  band energies     occupation 
      1      -3.5902      2.00000
      2      -0.3182      2.00000
      3       1.6406      2.00000
      4       4.0894      2.00000
      5       7.8212      0.00000
      6      11.1990      0.00000
      7      11.5319      0.00000
      8      12.3450      0.00000
      9      12.6347      0.00000
     10      13.8815      0.00000
     11      19.0521      0.00000
     12      19.6737      0.00000

 k-point    15 :       0.4286    0.4286    0.0000
  band No.  band energies     occupation 
      1      -3.0750      2.00000
      2      -0.8868      2.00000
      3       3.0060      2.00000
      4       3.0060      2.00000
      5       6.3423      0.02689
      6       6.8581      0.00000
      7      14.7669      0.00000
      8      14.7669      0.00000
      9      16.9920      0.00000
     10      17.4781      0.00000
     11      17.7703      0.00000
     12      17.7703      0.00000

 k-point    16 :      -0.4286    0.4286    0.0000
  band No.  band energies     occupation 
      1      -2.1304      2.00000
      2      -1.8415      2.00000
      3       2.1185      2.00000
      4       3.0672      2.00000
      5       6.6433      0.00001
      6       7.8968      0.00000
      7      14.5461      0.00000
      8      14.9869      0.00000
      9      15.1795      0.00000
     10      15.4637      0.00000
     11      19.4572      0.00000
     12      19.5288      0.00000

 k-point    17 :       0.4286    0.2857    0.1429
  band No.  band energies     occupation 
      1      -4.4462      2.00000
      2       0.8709      2.00000
      3       2.6649      2.00000
      4       3.9818      2.00000
      5       8.3387      0.00000
      6       9.5872      0.00000
      7       9.8862      0.00000
      8      11.8791      0.00000
      9      13.9839      0.00000
     10      16.6985      0.00000
     11      17.1174      0.00000
     12      18.2691      0.00000

 k-point    18 :      -0.4286    0.2857    0.1429
  band No.  band energies     occupation 
      1      -3.4105      2.00000
      2      -0.6529      2.00000
      3       2.0946      2.00000
      4       3.4487      2.00000
      5       8.8224      0.00000
      6       9.2345      0.00000
      7      11.2135      0.00000
      8      12.3307      0.00000
      9      14.0660      0.00000
     10      15.7142      0.00000
     11      17.9218      0.00000
     12      19.1486      0.00000

 k-point    19 :      -0.4286    0.4286    0.1429
  band No.  band energies     occupation 
      1      -2.8717      2.00000
      2      -0.9730      2.00000
      3       2.1847      2.00000
      4       2.5937      2.00000
      5       7.9700      0.00000
      6       8.3380      0.00000
      7      11.8903      0.00000
      8      14.3974      0.00000
      9      14.8683      0.00000
     10      16.7752      0.00000
     11      18.1794      0.00000
     12      19.7605      0.00000

 k-point    20 :      -0.2857    0.4286    0.1429
  band No.  band energies     occupation 
      1      -2.4378      2.00000
      2      -1.3678      2.00000
      3       1.5498      2.00000
      4       2.6849      2.00000
      5       8.4947      0.00000
      6      10.5919      0.00000
      7      11.3846      0.00000
      8      11.5281      0.00000
      9      14.7997      0.00000
     10      15.9672      0.00000
     11      18.9057      0.00000
     12      20.1945      0.00000


--------------------------------------------------------------------------------------------------------


 soft charge-density along one line, spin component           1
         0         1         2         3         4         5         6         7         8         9
x     8.4581    0.0000    2.0492    0.0000    0.3555    0.0000    0.0893    0.0000    0.0039    0.0000
x    -0.0026   -0.0000   -0.0008   -0.0000    0.0000   -0.0000    0.0000    0.0000    0.0000   -0.0000
x    -0.0000   -0.0000   -0.0000   -0.0000    0.0000    0.0000
y     8.4581    0.0000    2.0492    0.0000    0.3555    0.0000    0.0893    0.0000    0.0039    0.0000
y    -0.0026   -0.0000   -0.0008   -0.0000    0.0000   -0.0000    0.0000    0.0000    0.0000   -0.0000
y    -0.0000   -0.0000   -0.0000   -0.0000    0.0000    0.0000
z     8.4581    0.0000    2.0492    0.0000    0.3555    0.0000    0.0893    0.0000    0.0039    0.0000
z    -0.0026   -0.0000   -0.0008   -0.0000    0.0000   -0.0000    0.0000    0.0000    0.0000   -0.0000
z    -0.0000   -0.0000   -0.0000   -0.0000    0.0000    0.0000
 total charge-density along one line
x     8.0000    0.0000    1.7727    0.0000    0.3557    0.0000    0.1566    0.0000    0.0224   -0.0000
x    -0.0037   -0.0000   -0.0008   -0.0000   -0.0003   -0.0000    0.0001   -0.0000    0.0001   -0.0000
x    -0.0000   -0.0000    0.0000    0.0000   -0.0000   -0.0000    0.0000    0.0000    0.0000    0.0000
x     0.0000    0.0000   -0.0000   -0.0000   -0.0000   -0.0000    0.0000    0.0000   -0.0000   -0.0000
x     0.0000   -0.0000   -0.0000    0.0000   -0.0000    0.0000   -0.0000   -0.0000    0.0000    0.0000
y     8.0000    0.0000    1.7727    0.0000    0.3557    0.0000    0.1566    0.0000    0.0224   -0.0000
y    -0.0037   -0.0000   -0.0008   -0.0000   -0.0003   -0.0000    0.0001   -0.0000    0.0001    0.0000
y    -0.0000    0.0000    0.0000   -0.0000   -0.0000    0.0000    0.0000   -0.0000    0.0000   -0.0000
y     0.0000    0.0000   -0.0000   -0.0000   -0.0000   -0.0000    0.0000   -0.0000   -0.0000   -0.0000
y     0.0000   -0.0000   -0.0000    0.0000   -0.0000    0.0000   -0.0000    0.0000    0.0000   -0.0000
z     8.0000    0.0000    1.7727    0.0000    0.3557   -0.0000    0.1566   -0.0000    0.0224   -0.0000
z    -0.0037   -0.0000   -0.0008   -0.0000   -0.0003   -0.0000    0.0001   -0.0000    0.0001    0.0000
z    -0.0000   -0.0000    0.0000   -0.0000   -0.0000    0.0000    0.0000   -0.0000   -0.0000   -0.0000
z     0.0000    0.0000   -0.0000    0.0000   -0.0000    0.0000    0.0000   -0.0000   -0.0000   -0.0000
z     0.0000   -0.0000   -0.0000    0.0000   -0.0000   -0.0000   -0.0000    0.0000    0.0000   -0.0000
 
 pseudopotential strength for first ion, spin component:           1
 18.421  25.701   0.000   0.000   0.000   0.000   0.000   0.000
 25.701  35.862   0.000   0.000   0.000   0.000   0.000   0.000
  0.000   0.000   4.179  -0.000  -0.000   7.788  -0.000  -0.000
  0.000   0.000  -0.000   4.179  -0.000  -0.000   7.788  -0.000
  0.000   0.000  -0.000  -0.000   4.179  -0.000  -0.000   7.788
  0.000   0.000   7.788  -0.000  -0.000  14.522  -0.000  -0.000
  0.000   0.000  -0.000   7.788  -0.000  -0.000  14.522  -0.000
  0.000   0.000  -0.000  -0.000   7.788  -0.000  -0.000  14.522
 total augmentation occupancy for first ion, spin component:           1
  5.643  -2.127  -0.000   0.000   0.000   0.000   0.000   0.000
 -2.127   0.915   0.000   0.000   0.000   0.000   0.000  -0.000
 -0.000  -0.000   2.958  -0.000   0.000  -0.665   0.000  -0.000
  0.000   0.000  -0.000   2.958   0.000   0.000  -0.665  -0.000
  0.000   0.000   0.000   0.000   2.958  -0.000  -0.000  -0.665
 -0.000  -0.000  -0.665   0.000  -0.000   0.158   0.000   0.000
  0.000   0.000   0.000  -0.665  -0.000  -0.000   0.158   0.000
  0.000  -0.000  -0.000  -0.000  -0.665   0.000   0.000   0.158


------------------------ aborting loop because EDIFF is reached ----------------------------------------


    CHARGE:  cpu time    0.0163: real time    0.0163
    FORLOC:  cpu time    0.0013: real time    0.0013
    FORNL :  cpu time    0.0200: real time    0.0200
    STRESS:  cpu time    0.0574: real time    0.0574
    FORCOR:  cpu time    0.0313: real time    0.0313
    FORHAR:  cpu time    0.0064: real time    0.0064
    MIXING:  cpu time    0.0015: real time    0.0015
    OFIELD:  cpu time    0.0000: real time    0.0000

  FORCE on cell =-STRESS in cart. coord.  units (eV):
  Direction    XX          YY          ZZ          XY          YZ          ZX
  --------------------------------------------------------------------------------------
  Alpha Z     3.33881     3.33881     3.33881
  Ewald     -75.99608   -75.99616   -75.99607     0.00001    -0.00000     0.00000
  Hartree     5.01102     5.01102     5.01102     0.00000     0.00000     0.00000
  E(xc)     -25.32919   -25.32919   -25.32919    -0.00000    -0.00000    -0.00000
  Local     -29.32351   -29.32349   -29.32349    -0.00000     0.00001     0.00001
  n-local    73.95863    77.35556    81.68692    -0.95295    -0.62056    -0.01432
  augment   -11.63935   -11.63935   -11.63937    -0.00000    -0.00001    -0.00001
  Kinetic    53.36790    55.43265    60.98399     0.87086     0.96794    -0.55308
  Fock        0.00000     0.00000     0.00000     0.00000     0.00000     0.00000
  -------------------------------------------------------------------------------------
  Total       0.32356     0.32356     0.32356    -0.00000    -0.00000    -0.00000
  in kB      12.85408    12.85409    12.85407    -0.00000    -0.00000    -0.00000
  external pressure =       12.85 kB  Pullay stress =        0.00 kB


 VOLUME and BASIS-vectors are now :
 -----------------------------------------------------------------------------
  energy-cutoff  :      600.00
  volume of cell :       40.33
      direct lattice vectors                 reciprocal lattice vectors
     3.333573000  0.000000000  1.924639000     0.299978432 -0.106058350  0.000000000
     1.111191000  3.142924000  1.924639000     0.000000000  0.318175050  0.000000000
     0.000000000  0.000000000  3.849278000    -0.149989216 -0.106058350  0.259788979

  length of vectors
     3.849278403  3.849279412  3.849278000     0.318175161  0.318175050  0.318175190


 FORCES acting on ions
    electron-ion (+dipol)            ewald-force                    non-local-force                 convergence-correction
 -----------------------------------------------------------------------------------------------
   0.536E-05 0.245E-04 0.285E-06   -.892E-05 -.418E-04 -.429E-15   -.485E-17 0.704E-16 0.866E-16   -.105E-08 0.111E-09 -.218E-08
   -.536E-05 -.245E-04 -.285E-06   0.892E-05 0.418E-04 0.408E-15   0.143E-16 0.407E-16 -.186E-15   0.105E-08 -.111E-09 0.218E-08
 -----------------------------------------------------------------------------------------------
   0.146E-14 0.646E-14 -.989E-14   -.341E-15 0.468E-16 -.212E-16   0.944E-17 0.111E-15 -.993E-16   -.211E-14 -.124E-14 -.141E-14
 
 
 POSITION                                       TOTAL-FORCE (eV/Angst)
 -----------------------------------------------------------------------------------
      3.88917      2.75006      6.73624         0.000000      0.000000     -0.000000
      0.55560      0.39287      0.96232        -0.000000     -0.000000      0.000000
 -----------------------------------------------------------------------------------
    total drift:                               -0.000000      0.000000     -0.000000


--------------------------------------------------------------------------------------------------------



  FREE ENERGIE OF THE ION-ELECTRON SYSTEM (eV)
  ---------------------------------------------------
  free  energy   TOTEN  =       -10.83853503 eV

  energy  without entropy=      -10.83821013  energy(sigma->0) =      -10.83837258
 


--------------------------------------------------------------------------------------------------------


    POTLOK:  cpu time    0.0329: real time    0.0329


--------------------------------------------------------------------------------------------------------


 writing wavefunctions
     LOOP+:  cpu time    4.1788: real time    4.1795
    4ORBIT:  cpu time    0.0000: real time    0.0000

 total amount of memory used by VASP MPI-rank0    43107. kBytes
=======================================================================

   base      :      30000. kBytes
   nonl-proj :       1788. kBytes
   grid      :       6018. kBytes
   one-center:          6. kBytes
   wavefun   :       5295. kBytes
 
  
  
 General timing and accounting informations for this job:
 ========================================================
  
                  Total CPU time used (sec):        4.425
                            User time (sec):        4.381
                          System time (sec):        0.044
                         Elapsed time (sec):        4.429
  
                   Maximum memory used (kb):       31416.
                   Average memory used (kb):           0.
  
                          Minor page faults:        16711
                          Major page faults:            0
                 Voluntary context switches:           21
