 vasp.5.4.4.18Apr17-6-g9f103f2a35 (build Sep 03 2019 17:22:03) complex          
  
 executed on             LinuxIFC date 2024.12.15  15:55:52
 serial version


--------------------------------------------------------------------------------------------------------


 INCAR:
 POTCAR:    PAW_PBE Si 05Jan2001                  
 POTCAR:    PAW_PBE Si 05Jan2001                  
   SHA256 =  79d9987ad8750f624c4d6acb2a16d13abf6a777132adc04dc6c8399be72b42bb Si
   COPYR  = (c) Copyright 05Jan2001 Georg Kresse                                
   COPYR  = This file is part of the software VASP. Any use, copying, and all ot
   COPYR  = If you do not have a valid VASP license, you may not use, copy or di
   VRHFIN =Si: s2p2                                                             
   LEXCH  = PE                                                                  
   EATOM  =   103.0669 eV,    7.5752 Ry                                         
                                                                                
   TITEL  = PAW_PBE Si 05Jan2001                                                
   LULTRA =        F    use ultrasoft PP ?                                      
   IUNSCR =        1    unscreen: 0-lin 1-nonlin 2-no                           
   RPACOR =    1.500    partial core radius                                     
   POMASS =   28.085; ZVAL   =    4.000    mass and valenz                      
   RCORE  =    1.900    outmost cutoff radius                                   
   RWIGS  =    2.480; RWIGS  =    1.312    wigner-seitz radius (au A)           
   ENMAX  =  245.345; ENMIN  =  184.009 eV                                      
   ICORE  =        2    local potential                                         
   LCOR   =        T    correct aug charges                                     
   LPAW   =        T    paw PP                                                  
   EAUG   =  322.069                                                            
   DEXC   =    0.000                                                            
   RMAX   =    1.950    core radius for proj-oper                               
   RAUG   =    1.300    factor for augmentation sphere                          
   RDEP   =    1.993    radius for radial grids                                 
   RDEPT  =    1.837    core radius for aug-charge                              
                                                                                
   Atomic configuration                                                         
    6 entries                                                                   
     n  l   j            E        occ.                                          
     1  0  0.50     -1785.8828   2.0000                                         
     2  0  0.50      -139.4969   2.0000                                         
     2  1  1.50       -95.5546   6.0000                                         
     3  0  0.50       -10.8127   2.0000                                         
     3  1  0.50        -4.0811   2.0000                                         
     3  2  1.50        -4.0817   0.0000                                         
   Description                                                                  
     l       E           TYP  RCUT    TYP  RCUT                                 
     0    -10.8127223     23  1.900                                             
     0     -7.6451159     23  1.900                                             
     1     -4.0811372     23  1.900                                             
     1      2.4879257     23  1.900                                             
     2     -4.0817478      7  1.900                                             
  local pseudopotential read in
  partial core-charges read in
  partial kinetic energy density read in
  atomic valenz-charges read in
  non local Contribution for L=           0  read in
    real space projection operators read in
  non local Contribution for L=           0  read in
    real space projection operators read in
  non local Contribution for L=           1  read in
    real space projection operators read in
  non local Contribution for L=           1  read in
    real space projection operators read in
    PAW grid and wavefunctions read in
 
   number of l-projection  operators is LMAX  =           4
   number of lm-projection operators is LMMAX =           8
 
  PAW_PBE Si 05Jan2001                  :
 energy of atom  1       EATOM= -103.0669
 kinetic energy error for atom=    0.0003 (will be added to EATOM!!)
 
 
 POSCAR: i2a=[Si] ; Si                           
  positions in direct lattice
  No initial velocities read in
 exchange correlation table for  LEXCH =        8
   RHO(1)=    0.500       N(1)  =     2000
   RHO(2)=  100.500       N(2)  =     4000
 


--------------------------------------------------------------------------------------------------------


 ion  position               nearest neighbor table
   1  0.875  0.875  0.875-   2 2.36   2 2.36   2 2.36   2 2.36
   2  0.125  0.125  0.125-   1 2.36   1 2.36   1 2.36   1 2.36
 
  LATTYP: Found a face centered cubic cell.
 ALAT       =     5.4437011529
  
  Lattice vectors:
  
 A1 = (   3.3335730000,   0.0000000000,   1.9246390000)
 A2 = (   1.1111910000,   3.1429240000,   1.9246390000)
 A3 = (   0.0000000000,   0.0000000000,   3.8492780000)


Analysis of symmetry for initial positions (statically):
=====================================================================
 Subroutine PRICEL returns:
 Original cell was already a primitive cell.
 

 Routine SETGRP: Setting up the symmetry group for a 
 face centered cubic supercell.


 Subroutine GETGRP returns: Found 48 space group operations
 (whereof 12 operations were pure point group operations)
 out of a pool of 48 trial point group operations.


The static configuration has the point symmetry D_3d.
 The point group associated with its full space group is O_h .


Analysis of symmetry for dynamics (positions and initial velocities):
=====================================================================
 Subroutine PRICEL returns:
 Original cell was already a primitive cell.
 

 Routine SETGRP: Setting up the symmetry group for a 
 face centered cubic supercell.


 Subroutine GETGRP returns: Found 48 space group operations
 (whereof 12 operations were pure point group operations)
 out of a pool of 48 trial point group operations.


The dynamic configuration has the point symmetry D_3d.
 The point group associated with its full space group is O_h .


 Subroutine INISYM returns: Found 48 space group operations
 (whereof 12 operations are pure point group operations),
 and found     1 'primitive' translations

 
 
 KPOINTS: Explicit k-point list                   
  k-points in reciprocal lattice
Space group operators:
 irot       det(A)        alpha          n_x          n_y          n_z        tau_x        tau_y        tau_z
    1     1.000000     0.000000     1.000000     0.000000     0.000000     0.000000     0.000000     0.000000
    2    -1.000000     0.000000     1.000000     0.000000     0.000000     0.000000     0.000000     0.000000
    3     1.000000   120.000000    -0.471404    -0.333333    -0.816497     0.000000     0.000000     0.000000
    4    -1.000000   120.000000    -0.471404    -0.333333    -0.816497     0.000000     0.000000     0.000000
    5     1.000000   120.000000     0.471405     0.333333     0.816496     0.000000     0.000000     0.000000
    6    -1.000000   120.000000     0.471405     0.333333     0.816496     0.000000     0.000000     0.000000
    7     1.000000   180.000000     0.288675     0.816496    -0.500000     0.000000     0.000000     0.000000
    8    -1.000000   180.000000     0.288675     0.816496    -0.500000     0.000000     0.000000     0.000000
    9     1.000000   180.000000     0.577350    -0.816496     0.000000     0.000000     0.000000     0.000000
   10    -1.000000   180.000000     0.577350    -0.816496     0.000000     0.000000     0.000000     0.000000
   11     1.000000   180.000000     0.866025    -0.000000    -0.500000     0.000000     0.000000     0.000000
   12    -1.000000   180.000000     0.866025    -0.000000    -0.500000     0.000000     0.000000     0.000000
   13     1.000000    90.000000    -0.816497    -0.577350    -0.000000     0.500000     0.000000     0.000000
   14    -1.000000    90.000000    -0.816497    -0.577350    -0.000000     0.500000     0.000000     0.000000
   15     1.000000   180.000000     0.866025    -0.000000     0.500000     0.500000     0.000000     0.000000
   16    -1.000000   180.000000     0.866025    -0.000000     0.500000     0.500000     0.000000     0.000000
   17     1.000000    90.000000     0.408248    -0.577350     0.707107     0.500000     0.000000     0.000000
   18    -1.000000    90.000000     0.408248    -0.577350     0.707107     0.500000     0.000000     0.000000
   19     1.000000   180.000000     0.816497     0.577350     0.000000     0.000000     0.000000     0.500000
   20    -1.000000   180.000000     0.816497     0.577350     0.000000     0.000000     0.000000     0.500000
   21     1.000000   120.000000     0.942809    -0.333333     0.000000     0.000000     0.000000     0.500000
   22    -1.000000   120.000000     0.942809    -0.333333     0.000000     0.000000     0.000000     0.500000
   23     1.000000   120.000000     0.000000    -1.000000     0.000000     0.000000     0.000000     0.500000
   24    -1.000000   120.000000     0.000000    -1.000000     0.000000     0.000000     0.000000     0.500000
   25     1.000000    90.000000     0.816497     0.577350    -0.000000     0.000000     0.500000     0.000000
   26    -1.000000    90.000000     0.816497     0.577350    -0.000000     0.000000     0.500000     0.000000
   27     1.000000    90.000000     0.408249    -0.577350    -0.707107     0.000000     0.500000     0.000000
   28    -1.000000    90.000000     0.408249    -0.577350    -0.707107     0.000000     0.500000     0.000000
   29     1.000000   179.999999     0.288675     0.816496     0.500000     0.000000     0.500000     0.000000
   30    -1.000000   179.999999     0.288675     0.816496     0.500000     0.000000     0.500000     0.000000
   31     1.000000   120.000000     0.000000     1.000000     0.000000     0.500000     0.000000     0.000000
   32    -1.000000   120.000000     0.000000     1.000000     0.000000     0.500000     0.000000     0.000000
   33     1.000000   120.000000     0.471404     0.333333    -0.816497     0.500000     0.000000     0.000000
   34    -1.000000   120.000000     0.471404     0.333333    -0.816497     0.500000     0.000000     0.000000
   35     1.000000   180.000000    -0.408248     0.577350     0.707107     0.500000     0.000000     0.000000
   36    -1.000000   180.000000    -0.408248     0.577350     0.707107     0.500000     0.000000     0.000000
   37     1.000000    90.000000    -0.408249     0.577350    -0.707107     0.000000     0.000000     0.500000
   38    -1.000000    90.000000    -0.408249     0.577350    -0.707107     0.000000     0.000000     0.500000
   39     1.000000   180.000000    -0.000000     0.000000     1.000000     0.000000     0.000000     0.500000
   40    -1.000000   180.000000    -0.000000     0.000000     1.000000     0.000000     0.000000     0.500000
   41     1.000000    90.000000    -0.408248     0.577350     0.707107     0.000000     0.000000     0.500000
   42    -1.000000    90.000000    -0.408248     0.577350     0.707107     0.000000     0.000000     0.500000
   43     1.000000   120.000000    -0.942809     0.333333     0.000000     0.000000     0.500000     0.000000
   44    -1.000000   120.000000    -0.942809     0.333333     0.000000     0.000000     0.500000     0.000000
   45     1.000000   180.000000    -0.408248     0.577350    -0.707107     0.000000     0.500000     0.000000
   46    -1.000000   180.000000    -0.408248     0.577350    -0.707107     0.000000     0.500000     0.000000
   47     1.000000   120.000000    -0.471405    -0.333333     0.816496     0.000000     0.500000     0.000000
   48    -1.000000   120.000000    -0.471405    -0.333333     0.816496     0.000000     0.500000     0.000000


--------------------------------------------------------------------------------------------------------




 Dimension of arrays:
   k-points           NKPTS =     19   k-points in BZ     NKDIM =     19   number of bands    NBANDS=     12
   number of dos      NEDOS =    301   number of ions     NIONS =      2
   non local maximal  LDIM  =      4   non local SUM 2l+1 LMDIM =      8
   total plane-waves  NPLWV =  13824
   max r-space proj   IRMAX =      1   max aug-charges    IRDMAX=  11659
   dimension x,y,z NGX =    24 NGY =   24 NGZ =   24
   dimension x,y,z NGXF=    48 NGYF=   48 NGZF=   48
   support grid    NGXF=    48 NGYF=   48 NGZF=   48
   ions per type =               2
   NGX,Y,Z   is equivalent  to a cutoff of  10.37, 10.37, 10.37 a.u.
   NGXF,Y,Z  is equivalent  to a cutoff of  20.73, 20.73, 20.73 a.u.

 SYSTEM =  auto Fully inherited from the final st  
 POSCAR =  i2a=[Si] ; Si                           

 Startparameter for this run:
   NWRITE =      2    write-flag & timer
   PREC   = normal    normal or accurate (medium, high low for compatibility)
   ISTART =      0    job   : 0-new  1-cont  2-samecut
   ICHARG =      2    charge: 1-file 2-atom 10-const
   ISPIN  =      1    spin polarized calculation?
   LNONCOLLINEAR =      F non collinear calculations
   LSORBIT =      F    spin-orbit coupling
   INIWAV =      1    electr: 0-lowe 1-rand  2-diag
   LASPH  =      F    aspherical Exc in radial PAW
   METAGGA=      F    non-selfconsistent MetaGGA calc.

 Electronic Relaxation 1
   ENCUT  =  600.0 eV  44.10 Ry    6.64 a.u.   7.69  7.69  7.69*2*pi/ulx,y,z
   ENINI  =  600.0     initial cutoff
   ENAUG  =  700.0 eV  augmentation charge cutoff
   NELM   =     60;   NELMIN=  2; NELMDL= -5     # of ELM steps 
   EDIFF  = 0.1E-04   stopping-criterion for ELM
   LREAL  =      F    real-space projection
   NLSPLINE    = F    spline interpolate recip. space projectors
   LCOMPAT=      F    compatible to vasp.4.4
   GGA_COMPAT  = T    GGA compatible to vasp.4.4-vasp.4.6
   LMAXPAW     = -100 max onsite density
   LMAXMIX     =    2 max onsite mixed and CHGCAR
   VOSKOWN=      0    Vosko Wilk Nusair interpolation
   ROPT   =    0.00000
 Ionic relaxation
   EDIFFG = 0.1E-03   stopping-criterion for IOM
   NSW    =      0    number of steps for IOM
   NBLOCK =      1;   KBLOCK =      1    inner block; outer block 
   IBRION =     -1    ionic relax: 0-MD 1-quasi-New 2-CG
   NFREE  =      0    steps in history (QN), initial steepest desc. (CG)
   ISIF   =      2    stress and relaxation
   IWAVPR =      0    prediction:  0-non 1-charg 2-wave 3-comb
   ISYM   =      2    0-nonsym 1-usesym 2-fastsym
   LCORR  =      T    Harris-Foulkes like correction to forces

   POTIM  = 0.5000    time-step for ionic-motion
   TEIN   =    0.0    initial temperature
   TEBEG  =    0.0;   TEEND  =   0.0 temperature during run
   SMASS  =  -3.00    Nose mass-parameter (am)
   estimated Nose-frequenzy (Omega)   =  0.10E-29 period in steps =****** mass=  -0.339E-27a.u.
   SCALEE = 1.0000    scale energy and forces
   NPACO  =    256;   APACO  = 16.0  distance and # of slots for P.C.
   PSTRESS=    0.0 pullay stress

  Mass of Ions in am
   POMASS =  28.09
  Ionic Valenz
   ZVAL   =   4.00
  Atomic Wigner-Seitz radii
   RWIGS  =  -1.00
  virtual crystal weights 
   VCA    =   1.00
   NELECT =       8.0000    total number of electrons
   NUPDOWN=      -1.0000    fix difference up-down

 DOS related values:
   EMIN   =  10.00;   EMAX   =-10.00  energy-range for DOS
   EFERMI =   0.00
   ISMEAR =     0;   SIGMA  =   0.20  broadening in eV -4-tet -1-fermi 0-gaus

 Electronic relaxation 2 (details)
   IALGO  =     38    algorithm
   LDIAG  =      T    sub-space diagonalisation (order eigenvalues)
   LSUBROT=      F    optimize rotation matrix (better conditioning)
   TURBO    =      0    0=normal 1=particle mesh
   IRESTART =      0    0=no restart 2=restart with 2 vectors
   NREBOOT  =      0    no. of reboots
   NMIN     =      0    reboot dimension
   EREF     =   0.00    reference energy to select bands
   IMIX   =      4    mixing-type and parameters
     AMIX     =   0.40;   BMIX     =  1.00
     AMIX_MAG =   1.60;   BMIX_MAG =  1.00
     AMIN     =   0.10
     WC   =   100.;   INIMIX=   1;  MIXPRE=   1;  MAXMIX= -45

 Intra band minimization:
   WEIMIN = 0.0000     energy-eigenvalue tresh-hold
   EBREAK =  0.21E-06  absolut break condition
   DEPER  =   0.30     relativ break condition  

   TIME   =   0.40     timestep for ELM

  volume/ion in A,a.u.               =      20.16       136.08
  Fermi-wavevector in a.u.,A,eV,Ry     =   0.954766  1.804247 12.402783  0.911579
  Thomas-Fermi vector in A             =   2.083543
 
 Write flags
   LWAVE        =      T    write WAVECAR
   LDOWNSAMPLE  =      F    k-point downsampling of WAVECAR
   LCHARG       =      T    write CHGCAR
   LVTOT        =      F    write LOCPOT, total local potential
   LVHAR        =      F    write LOCPOT, Hartree potential only
   LELF         =      F    write electronic localiz. function (ELF)
   LORBIT       =     11    0 simple, 1 ext, 2 COOP (PROOUT), +10 PAW based schemes


 Dipole corrections
   LMONO  =      F    monopole corrections only (constant potential shift)
   LDIPOL =      F    correct potential (dipole corrections)
   IDIPOL =      0    1-x, 2-y, 3-z, 4-all directions 
   EPSILON=  1.0000000 bulk dielectric constant

 Exchange correlation treatment:
   GGA     =    --    GGA type
   LEXCH   =     8    internal setting for exchange type
   VOSKOWN=      0    Vosko Wilk Nusair interpolation
   LHFCALC =     F    Hartree Fock is set to
   LHFONE  =     F    Hartree Fock one center treatment
   AEXX    =    0.0000 exact exchange contribution

 Linear response parameters
   LEPSILON=     F    determine dielectric tensor
   LRPA    =     F    only Hartree local field effects (RPA)
   LNABLA  =     F    use nabla operator in PAW spheres
   LVEL    =     F    velocity operator in full k-point grid
   LINTERFAST=   F  fast interpolation
   KINTER  =     0    interpolate to denser k-point grid
   CSHIFT  =0.1000    complex shift for real part using Kramers Kronig
   OMEGAMAX=  -1.0    maximum frequency
   DEG_THRESHOLD= 0.2000000E-02 threshold for treating states as degnerate
   RTIME   =   -0.100 relaxation time in fs
  (WPLASMAI=    0.000 imaginary part of plasma frequency in eV, 0.658/RTIME)
   DFIELD  = 0.0000000 0.0000000 0.0000000 field for delta impulse in time
 
 Orbital magnetization related:
   ORBITALMAG=     F  switch on orbital magnetization
   LCHIMAG   =     F  perturbation theory with respect to B field
   DQ        =  0.001000  dq finite difference perturbation B field
   LLRAUG    =     F  two centre corrections for induced B field



--------------------------------------------------------------------------------------------------------


 Static calculation
 charge density and potential will be updated during run
 non-spin polarized calculation
 Variant of blocked Davidson
 Davidson routine will perform the subspace rotation
 perform sub-space diagonalisation
    after iterative eigenvector-optimisation
 modified Broyden-mixing scheme, WC =      100.0
 initial mixing is a Kerker type mixing with AMIX =  0.4000 and BMIX =      1.0000
 Hartree-type preconditioning will be used
 using additional bands            8
 reciprocal scheme for non local part
 use partial core corrections
 calculate Harris-corrections to forces 
   (improved forces if not selfconsistent)
 use gradient corrections 
 use of overlap-Matrix (Vanderbilt PP)
 Gauss-broadening in eV      SIGMA  =   0.20


--------------------------------------------------------------------------------------------------------


  energy-cutoff  :      600.00
  volume of cell :       40.33
      direct lattice vectors                 reciprocal lattice vectors
     3.333573000  0.000000000  1.924639000     0.299978432 -0.106058350  0.000000000
     1.111191000  3.142924000  1.924639000     0.000000000  0.318175050  0.000000000
     0.000000000  0.000000000  3.849278000    -0.149989216 -0.106058350  0.259788979

  length of vectors
     3.849278403  3.849279412  3.849278000     0.318175161  0.318175050  0.318175190


 
 k-points in units of 2pi/SCALE and weight: Explicit k-point list                   
   0.09149342 -0.05175647  0.16314748       0.053
   0.08849364 -0.05069589  0.16314748       0.053
   0.09449321 -0.05281706  0.16314748       0.053
   0.09149342 -0.05493823  0.16314748       0.053
   0.09149342 -0.04857472  0.16314748       0.053
   0.09299331 -0.05069589  0.16054959       0.053
   0.08999353 -0.05281706  0.16574537       0.053
   0.08849364 -0.05387764  0.16314748       0.053
   0.09449321 -0.04963531  0.16314748       0.053
   0.09449321 -0.05599881  0.16314748       0.053
   0.08849364 -0.04751414  0.16314748       0.053
   0.08999353 -0.04963531  0.16054959       0.053
   0.09299331 -0.05387764  0.16574537       0.053
   0.09599310 -0.05175647  0.16054959       0.053
   0.08699375 -0.05175647  0.16574537       0.053
   0.09299331 -0.05387764  0.16054959       0.053
   0.08999353 -0.04963531  0.16574537       0.053
   0.09299331 -0.04751414  0.16054959       0.053
   0.08999353 -0.05599881  0.16574537       0.053
 
 k-points in reciprocal lattice and weights: Explicit k-point list                   
   0.61900000  0.25300000  0.62800000       0.053
   0.60900000  0.25300000  0.62800000       0.053
   0.62900000  0.25300000  0.62800000       0.053
   0.61900000  0.24300000  0.62800000       0.053
   0.61900000  0.26300000  0.62800000       0.053
   0.61900000  0.25300000  0.61800000       0.053
   0.61900000  0.25300000  0.63800000       0.053
   0.60900000  0.24300000  0.62800000       0.053
   0.62900000  0.26300000  0.62800000       0.053
   0.62900000  0.24300000  0.62800000       0.053
   0.60900000  0.26300000  0.62800000       0.053
   0.60900000  0.25300000  0.61800000       0.053
   0.62900000  0.25300000  0.63800000       0.053
   0.62900000  0.25300000  0.61800000       0.053
   0.60900000  0.25300000  0.63800000       0.053
   0.61900000  0.24300000  0.61800000       0.053
   0.61900000  0.26300000  0.63800000       0.053
   0.61900000  0.26300000  0.61800000       0.053
   0.61900000  0.24300000  0.63800000       0.053
 
 position of ions in fractional coordinates (direct lattice) 
   0.87500000  0.87500000  0.87500000
   0.12500000  0.12500000  0.12500000
 
 position of ions in cartesian coordinates  (Angst):
   3.88916850  2.75005850  6.73623650
   0.55559550  0.39286550  0.96231950
 


--------------------------------------------------------------------------------------------------------


 k-point  1 :   0.6190 0.2530 0.6280  plane waves:    1348
 k-point  2 :   0.6090 0.2530 0.6280  plane waves:    1345
 k-point  3 :   0.6290 0.2530 0.6280  plane waves:    1347
 k-point  4 :   0.6190 0.2430 0.6280  plane waves:    1342
 k-point  5 :   0.6190 0.2630 0.6280  plane waves:    1346
 k-point  6 :   0.6190 0.2530 0.6180  plane waves:    1346
 k-point  7 :   0.6190 0.2530 0.6380  plane waves:    1344
 k-point  8 :   0.6090 0.2430 0.6280  plane waves:    1342
 k-point  9 :   0.6290 0.2630 0.6280  plane waves:    1344
 k-point 10 :   0.6290 0.2430 0.6280  plane waves:    1340
 k-point 11 :   0.6090 0.2630 0.6280  plane waves:    1346
 k-point 12 :   0.6090 0.2530 0.6180  plane waves:    1343
 k-point 13 :   0.6290 0.2530 0.6380  plane waves:    1344
 k-point 14 :   0.6290 0.2530 0.6180  plane waves:    1346
 k-point 15 :   0.6090 0.2530 0.6380  plane waves:    1343
 k-point 16 :   0.6190 0.2430 0.6180  plane waves:    1340
 k-point 17 :   0.6190 0.2630 0.6380  plane waves:    1345
 k-point 18 :   0.6190 0.2630 0.6180  plane waves:    1346
 k-point 19 :   0.6190 0.2430 0.6380  plane waves:    1343

 maximum number of plane-waves:      1348
 maximum index in each direction: 
   IXMAX=    7   IYMAX=    7   IZMAX=    7
   IXMIN=   -8   IYMIN=   -7   IZMIN=   -8


 total amount of memory used by VASP MPI-rank0    42681. kBytes
=======================================================================

   base      :      30000. kBytes
   nonl-proj :       1682. kBytes
   grid      :       6018. kBytes
   one-center:          6. kBytes
   wavefun   :       4975. kBytes
 
     INWAV:  cpu time    0.0000: real time    0.0000
 Broyden mixing: mesh for mixing (old mesh)
   NGX = 15   NGY = 15   NGZ = 15
  (NGX  = 48   NGY  = 48   NGZ  = 48)
  gives a total of   3375 points

 initial charge density was supplied:
 charge density of overlapping atoms calculated
 number of electron       8.0000000 magnetization 
 keeping initial charge density in first step


--------------------------------------------------------------------------------------------------------


 Maximum index for augmentation-charges        11057 (set IRDMAX)


--------------------------------------------------------------------------------------------------------


 First call to EWALD:  gamma=   0.517
 Maximum number of real-space cells 3x 3x 3
 Maximum number of reciprocal cells 3x 3x 3

    FEWALD:  cpu time    0.0009: real time    0.0008


--------------------------------------- Iteration      1(   1)  ---------------------------------------


    POTLOK:  cpu time    0.0334: real time    0.0303
    SETDIJ:  cpu time    0.0020: real time    0.0018
     EDDAV:  cpu time    0.2907: real time    0.2618
       DOS:  cpu time    0.0008: real time    0.0007
    --------------------------------------------
      LOOP:  cpu time    0.3269: real time    0.2946

 eigenvalue-minimisations  :   456
 total energy-change (2. order) : 0.2322402E+01  (-0.3371589E+03)
 number of electron       8.0000000 magnetization 
 augmentation part        8.0000000 magnetization 

 Free energy of the ion-electron system (eV)
  ---------------------------------------------------
  alpha Z        PSCENC =         3.33880741
  Ewald energy   TEWEN  =      -227.98820643
  -Hartree energ DENC   =       -11.11484531
  -exchange      EXHF   =         0.00000000
  -V(xc)+E(xc)   XCENC  =       -18.63153637
  PAW double counting   =       176.24759923     -141.06103558
  entropy T*S    EENTRO =        -0.01252965
  eigenvalues    EBANDS =        15.41102915
  atomic energy  EATOM  =       206.13311910
  Solvation  Ediel_sol  =         0.00000000
  ---------------------------------------------------
  free energy    TOTEN  =         2.32240155 eV

  energy without entropy =        2.33493120  energy(sigma->0) =        2.32866637


--------------------------------------------------------------------------------------------------------




--------------------------------------- Iteration      1(   2)  ---------------------------------------


     EDDAV:  cpu time    0.3499: real time    0.3151
       DOS:  cpu time    0.0006: real time    0.0006
    --------------------------------------------
      LOOP:  cpu time    0.3505: real time    0.3157

 eigenvalue-minimisations  :   592
 total energy-change (2. order) :-0.1656982E+02  (-0.1588237E+02)
 number of electron       8.0000000 magnetization 
 augmentation part        8.0000000 magnetization 

 Free energy of the ion-electron system (eV)
  ---------------------------------------------------
  alpha Z        PSCENC =         3.33880741
  Ewald energy   TEWEN  =      -227.98820643
  -Hartree energ DENC   =       -11.11484531
  -exchange      EXHF   =         0.00000000
  -V(xc)+E(xc)   XCENC  =       -18.63153637
  PAW double counting   =       176.24759923     -141.06103558
  entropy T*S    EENTRO =        -0.00000000
  eigenvalues    EBANDS =        -1.17131943
  atomic energy  EATOM  =       206.13311910
  Solvation  Ediel_sol  =         0.00000000
  ---------------------------------------------------
  free energy    TOTEN  =       -14.24741739 eV

  energy without entropy =      -14.24741739  energy(sigma->0) =      -14.24741739


--------------------------------------------------------------------------------------------------------




--------------------------------------- Iteration      1(   3)  ---------------------------------------


     EDDAV:  cpu time    0.3479: real time    0.3133
       DOS:  cpu time    0.0007: real time    0.0006
    --------------------------------------------
      LOOP:  cpu time    0.3486: real time    0.3139

 eigenvalue-minimisations  :   592
 total energy-change (2. order) :-0.5220911E+00  (-0.5214232E+00)
 number of electron       8.0000000 magnetization 
 augmentation part        8.0000000 magnetization 

 Free energy of the ion-electron system (eV)
  ---------------------------------------------------
  alpha Z        PSCENC =         3.33880741
  Ewald energy   TEWEN  =      -227.98820643
  -Hartree energ DENC   =       -11.11484531
  -exchange      EXHF   =         0.00000000
  -V(xc)+E(xc)   XCENC  =       -18.63153637
  PAW double counting   =       176.24759923     -141.06103558
  entropy T*S    EENTRO =        -0.00000000
  eigenvalues    EBANDS =        -1.69341051
  atomic energy  EATOM  =       206.13311910
  Solvation  Ediel_sol  =         0.00000000
  ---------------------------------------------------
  free energy    TOTEN  =       -14.76950847 eV

  energy without entropy =      -14.76950847  energy(sigma->0) =      -14.76950847


--------------------------------------------------------------------------------------------------------




--------------------------------------- Iteration      1(   4)  ---------------------------------------


     EDDAV:  cpu time    0.3555: real time    0.3202
       DOS:  cpu time    0.0006: real time    0.0006
    --------------------------------------------
      LOOP:  cpu time    0.3562: real time    0.3208

 eigenvalue-minimisations  :   608
 total energy-change (2. order) :-0.3981246E-02  (-0.3980798E-02)
 number of electron       8.0000000 magnetization 
 augmentation part        8.0000000 magnetization 

 Free energy of the ion-electron system (eV)
  ---------------------------------------------------
  alpha Z        PSCENC =         3.33880741
  Ewald energy   TEWEN  =      -227.98820643
  -Hartree energ DENC   =       -11.11484531
  -exchange      EXHF   =         0.00000000
  -V(xc)+E(xc)   XCENC  =       -18.63153637
  PAW double counting   =       176.24759923     -141.06103558
  entropy T*S    EENTRO =        -0.00000000
  eigenvalues    EBANDS =        -1.69739176
  atomic energy  EATOM  =       206.13311910
  Solvation  Ediel_sol  =         0.00000000
  ---------------------------------------------------
  free energy    TOTEN  =       -14.77348971 eV

  energy without entropy =      -14.77348971  energy(sigma->0) =      -14.77348971


--------------------------------------------------------------------------------------------------------




--------------------------------------- Iteration      1(   5)  ---------------------------------------


     EDDAV:  cpu time    0.3466: real time    0.3121
       DOS:  cpu time    0.0007: real time    0.0006
    CHARGE:  cpu time    0.0156: real time    0.0140
    MIXING:  cpu time    0.0011: real time    0.0010
    --------------------------------------------
      LOOP:  cpu time    0.3639: real time    0.3277

 eigenvalue-minimisations  :   588
 total energy-change (2. order) :-0.4421832E-04  (-0.4421672E-04)
 number of electron       7.9999999 magnetization 
 augmentation part       -0.4819946 magnetization 

 Broyden mixing:
  rms(total) = 0.46072E+00    rms(broyden)= 0.46072E+00
  rms(prec ) = 0.79815E+00
  weight for this iteration     100.00

 Free energy of the ion-electron system (eV)
  ---------------------------------------------------
  alpha Z        PSCENC =         3.33880741
  Ewald energy   TEWEN  =      -227.98820643
  -Hartree energ DENC   =       -11.11484531
  -exchange      EXHF   =         0.00000000
  -V(xc)+E(xc)   XCENC  =       -18.63153637
  PAW double counting   =       176.24759923     -141.06103558
  entropy T*S    EENTRO =        -0.00000000
  eigenvalues    EBANDS =        -1.69743598
  atomic energy  EATOM  =       206.13311910
  Solvation  Ediel_sol  =         0.00000000
  ---------------------------------------------------
  free energy    TOTEN  =       -14.77353393 eV

  energy without entropy =      -14.77353393  energy(sigma->0) =      -14.77353393


--------------------------------------------------------------------------------------------------------




--------------------------------------- Iteration      1(   6)  ---------------------------------------


    POTLOK:  cpu time    0.0315: real time    0.0284
    SETDIJ:  cpu time    0.0020: real time    0.0018
     EDDAV:  cpu time    0.3481: real time    0.3134
       DOS:  cpu time    0.0007: real time    0.0006
    CHARGE:  cpu time    0.0152: real time    0.0137
    MIXING:  cpu time    0.0012: real time    0.0011
    --------------------------------------------
      LOOP:  cpu time    0.3987: real time    0.3590

 eigenvalue-minimisations  :   592
 total energy-change (2. order) : 0.6777196E-01  (-0.3399774E-02)
 number of electron       7.9999999 magnetization 
 augmentation part       -0.4780460 magnetization 

 Broyden mixing:
  rms(total) = 0.27753E+00    rms(broyden)= 0.27753E+00
  rms(prec ) = 0.47739E+00
  weight for this iteration     100.00

 eigenvalues of (default mixing * dielectric matrix)
  average eigenvalue GAMMA=   2.5102
  2.5102

 Free energy of the ion-electron system (eV)
  ---------------------------------------------------
  alpha Z        PSCENC =         3.33880741
  Ewald energy   TEWEN  =      -227.98820643
  -Hartree energ DENC   =       -12.21331981
  -exchange      EXHF   =         0.00000000
  -V(xc)+E(xc)   XCENC  =       -18.43775180
  PAW double counting   =       382.63848225     -347.54477668
  entropy T*S    EENTRO =        -0.00000000
  eigenvalues    EBANDS =        -0.63211602
  atomic energy  EATOM  =       206.13311910
  Solvation  Ediel_sol  =         0.00000000
  ---------------------------------------------------
  free energy    TOTEN  =       -14.70576197 eV

  energy without entropy =      -14.70576197  energy(sigma->0) =      -14.70576197


--------------------------------------------------------------------------------------------------------




--------------------------------------- Iteration      1(   7)  ---------------------------------------


    POTLOK:  cpu time    0.0316: real time    0.0284
    SETDIJ:  cpu time    0.0020: real time    0.0018
     EDDAV:  cpu time    0.3490: real time    0.3145
       DOS:  cpu time    0.0007: real time    0.0006
    CHARGE:  cpu time    0.0152: real time    0.0137
    MIXING:  cpu time    0.0013: real time    0.0012
    --------------------------------------------
      LOOP:  cpu time    0.3997: real time    0.3601

 eigenvalue-minimisations  :   592
 total energy-change (2. order) : 0.3086776E-01  (-0.6704455E-02)
 number of electron       7.9999999 magnetization 
 augmentation part       -0.4732554 magnetization 

 Broyden mixing:
  rms(total) = 0.13943E-01    rms(broyden)= 0.13943E-01
  rms(prec ) = 0.32863E-01
  weight for this iteration     100.00

 eigenvalues of (default mixing * dielectric matrix)
  average eigenvalue GAMMA=   1.9001
  1.3767  2.4235

 Free energy of the ion-electron system (eV)
  ---------------------------------------------------
  alpha Z        PSCENC =         3.33880741
  Ewald energy   TEWEN  =      -227.98820643
  -Hartree energ DENC   =       -14.01349461
  -exchange      EXHF   =         0.00000000
  -V(xc)+E(xc)   XCENC  =       -18.11457201
  PAW double counting   =       869.38681753     -834.41802779
  entropy T*S    EENTRO =        -0.00000000
  eigenvalues    EBANDS =         1.00066258
  atomic energy  EATOM  =       206.13311910
  Solvation  Ediel_sol  =         0.00000000
  ---------------------------------------------------
  free energy    TOTEN  =       -14.67489421 eV

  energy without entropy =      -14.67489421  energy(sigma->0) =      -14.67489421


--------------------------------------------------------------------------------------------------------




--------------------------------------- Iteration      1(   8)  ---------------------------------------


    POTLOK:  cpu time    0.0316: real time    0.0284
    SETDIJ:  cpu time    0.0022: real time    0.0019
     EDDAV:  cpu time    0.3520: real time    0.3170
       DOS:  cpu time    0.0007: real time    0.0006
    CHARGE:  cpu time    0.0152: real time    0.0137
    MIXING:  cpu time    0.0013: real time    0.0012
    --------------------------------------------
      LOOP:  cpu time    0.4029: real time    0.3628

 eigenvalue-minimisations  :   600
 total energy-change (2. order) :-0.8910176E-03  (-0.3634784E-03)
 number of electron       7.9999999 magnetization 
 augmentation part       -0.4739850 magnetization 

 Broyden mixing:
  rms(total) = 0.89292E-02    rms(broyden)= 0.89292E-02
  rms(prec ) = 0.13668E-01
  weight for this iteration     100.00

 eigenvalues of (default mixing * dielectric matrix)
  average eigenvalue GAMMA=   2.3451
  3.1612  1.9370  1.9370

 Free energy of the ion-electron system (eV)
  ---------------------------------------------------
  alpha Z        PSCENC =         3.33880741
  Ewald energy   TEWEN  =      -227.98820643
  -Hartree energ DENC   =       -13.96071300
  -exchange      EXHF   =         0.00000000
  -V(xc)+E(xc)   XCENC  =       -18.11414639
  PAW double counting   =       857.20385948     -822.21492745
  entropy T*S    EENTRO =        -0.00000000
  eigenvalues    EBANDS =         0.92642205
  atomic energy  EATOM  =       206.13311910
  Solvation  Ediel_sol  =         0.00000000
  ---------------------------------------------------
  free energy    TOTEN  =       -14.67578523 eV

  energy without entropy =      -14.67578523  energy(sigma->0) =      -14.67578523


--------------------------------------------------------------------------------------------------------




--------------------------------------- Iteration      1(   9)  ---------------------------------------


    POTLOK:  cpu time    0.0315: real time    0.0284
    SETDIJ:  cpu time    0.0020: real time    0.0018
     EDDAV:  cpu time    0.3496: real time    0.3147
       DOS:  cpu time    0.0007: real time    0.0006
    CHARGE:  cpu time    0.0152: real time    0.0137
    MIXING:  cpu time    0.0014: real time    0.0013
    --------------------------------------------
      LOOP:  cpu time    0.4004: real time    0.3605

 eigenvalue-minimisations  :   596
 total energy-change (2. order) :-0.1740736E-03  (-0.1787544E-04)
 number of electron       7.9999999 magnetization 
 augmentation part       -0.4740889 magnetization 

 Broyden mixing:
  rms(total) = 0.48626E-02    rms(broyden)= 0.48626E-02
  rms(prec ) = 0.56103E-02
  weight for this iteration     100.00

 eigenvalues of (default mixing * dielectric matrix)
  average eigenvalue GAMMA=   2.0424
  2.8431  2.2240  2.2240  0.8786

 Free energy of the ion-electron system (eV)
  ---------------------------------------------------
  alpha Z        PSCENC =         3.33880741
  Ewald energy   TEWEN  =      -227.98820643
  -Hartree energ DENC   =       -14.00027786
  -exchange      EXHF   =         0.00000000
  -V(xc)+E(xc)   XCENC  =       -18.10556001
  PAW double counting   =       858.59156399     -823.60003225
  entropy T*S    EENTRO =        -0.00000000
  eigenvalues    EBANDS =         0.95462675
  atomic energy  EATOM  =       206.13311910
  Solvation  Ediel_sol  =         0.00000000
  ---------------------------------------------------
  free energy    TOTEN  =       -14.67595930 eV

  energy without entropy =      -14.67595930  energy(sigma->0) =      -14.67595930


--------------------------------------------------------------------------------------------------------




--------------------------------------- Iteration      1(  10)  ---------------------------------------


    POTLOK:  cpu time    0.0316: real time    0.0284
    SETDIJ:  cpu time    0.0020: real time    0.0018
     EDDAV:  cpu time    0.3523: real time    0.3172
       DOS:  cpu time    0.0007: real time    0.0006
    --------------------------------------------
      LOOP:  cpu time    0.3866: real time    0.3481

 eigenvalue-minimisations  :   600
 total energy-change (2. order) :-0.9110396E-05  (-0.6481974E-06)
 number of electron       7.9999999 magnetization 
 augmentation part       -0.4740889 magnetization 

 Free energy of the ion-electron system (eV)
  ---------------------------------------------------
  alpha Z        PSCENC =         3.33880741
  Ewald energy   TEWEN  =      -227.98820643
  -Hartree energ DENC   =       -14.00331102
  -exchange      EXHF   =         0.00000000
  -V(xc)+E(xc)   XCENC  =       -18.10620424
  PAW double counting   =       850.58441340     -815.59294826
  entropy T*S    EENTRO =        -0.00000000
  eigenvalues    EBANDS =         0.95836163
  atomic energy  EATOM  =       206.13311910
  Solvation  Ediel_sol  =         0.00000000
  ---------------------------------------------------
  free energy    TOTEN  =       -14.67596841 eV

  energy without entropy =      -14.67596841  energy(sigma->0) =      -14.67596841


--------------------------------------------------------------------------------------------------------




 average (electrostatic) potential at core
  the test charge radii are     0.9892
  (the norm of the test charge is              1.0000)
       1 -83.5960       2 -83.5960
 
 
 
 E-fermi :   4.2075     XC(G=0):  -9.4329     alpha+bet :-11.8943


 k-point     1 :       0.6190    0.2530    0.6280
  band No.  band energies     occupation 
      1      -2.5947      2.00000
      2      -1.5607      2.00000
      3       1.3977      2.00000
      4       3.2380      2.00000
      5       6.9326      0.00000
      6       9.8606      0.00000
      7      13.0334      0.00000
      8      13.5908      0.00000
      9      13.7662      0.00000
     10      14.1905      0.00000
     11      20.2729      0.00000
     12      20.5681      0.00000

 k-point     2 :       0.6090    0.2530    0.6280
  band No.  band energies     occupation 
      1      -2.5989      2.00000
      2      -1.5558      2.00000
      3       1.4026      2.00000
      4       3.2230      2.00000
      5       6.9575      0.00000
      6       9.8634      0.00000
      7      12.9436      0.00000
      8      13.5540      0.00000
      9      13.7443      0.00000
     10      14.3408      0.00000
     11      20.1269      0.00000
     12      20.6211      0.00000

 k-point     3 :       0.6290    0.2530    0.6280
  band No.  band energies     occupation 
      1      -2.5948      2.00000
      2      -1.5609      2.00000
      3       1.3969      2.00000
      4       3.2424      2.00000
      5       6.9257      0.00000
      6       9.8600      0.00000
      7      13.0580      0.00000
      8      13.5780      0.00000
      9      13.8090      0.00000
     10      14.1358      0.00000
     11      20.3344      0.00000
     12      20.5187      0.00000

 k-point     4 :       0.6190    0.2430    0.6280
  band No.  band energies     occupation 
      1      -2.5503      2.00000
      2      -1.6076      2.00000
      3       1.4327      2.00000
      4       3.2055      2.00000
      5       6.8951      0.00000
      6       9.6615      0.00000
      7      13.1579      0.00000
      8      13.7252      0.00000
      9      13.8588      0.00000
     10      14.2939      0.00000
     11      20.1930      0.00000
     12      20.4847      0.00000

 k-point     5 :       0.6190    0.2630    0.6280
  band No.  band energies     occupation 
      1      -2.6470      2.00000
      2      -1.5077      2.00000
      3       1.3705      2.00000
      4       3.2722      2.00000
      5       6.9724      0.00000
      6      10.0625      0.00000
      7      12.8950      0.00000
      8      13.4050      0.00000
      9      13.7255      0.00000
     10      14.1070      0.00000
     11      20.3283      0.00000
     12      20.6050      0.00000

 k-point     6 :       0.6190    0.2530    0.6180
  band No.  band energies     occupation 
      1      -2.6022      2.00000
      2      -1.5544      2.00000
      3       1.4000      2.00000
      4       3.2433      2.00000
      5       6.9269      0.00000
      6       9.8612      0.00000
      7      13.0411      0.00000
      8      13.5051      0.00000
      9      13.8817      0.00000
     10      14.1547      0.00000
     11      20.3223      0.00000
     12      20.4633      0.00000

 k-point     7 :       0.6190    0.2530    0.6380
  band No.  band energies     occupation 
      1      -2.5915      2.00000
      2      -1.5624      2.00000
      3       1.3995      2.00000
      4       3.2221      2.00000
      5       6.9562      0.00000
      6       9.8622      0.00000
      7      12.9663      0.00000
      8      13.6164      0.00000
      9      13.6839      0.00000
     10      14.3143      0.00000
     11      20.1506      0.00000
     12      20.6760      0.00000

 k-point     8 :       0.6090    0.2430    0.6280
  band No.  band energies     occupation 
      1      -2.5485      2.00000
      2      -1.6080      2.00000
      3       1.4350      2.00000
      4       3.1898      2.00000
      5       6.9190      0.00000
      6       9.6634      0.00000
      7      13.0876      0.00000
      8      13.7139      0.00000
      9      13.8142      0.00000
     10      14.4200      0.00000
     11      20.0595      0.00000
     12      20.6024      0.00000

 k-point     9 :       0.6290    0.2630    0.6280
  band No.  band energies     occupation 
      1      -2.6419      2.00000
      2      -1.5123      2.00000
      3       1.3669      2.00000
      4       3.2760      2.00000
      5       6.9645      0.00000
      6      10.0610      0.00000
      7      12.9349      0.00000
      8      13.4463      0.00000
      9      13.7176      0.00000
     10      14.0319      0.00000
     11      20.3918      0.00000
     12      20.6144      0.00000

 k-point    10 :       0.6290    0.2430    0.6280
  band No.  band energies     occupation 
      1      -2.5575      2.00000
      2      -1.6013      2.00000
      3       1.4343      2.00000
      4       3.2107      2.00000
      5       6.8892      0.00000
      6       9.6619      0.00000
      7      13.1676      0.00000
      8      13.6420      0.00000
      9      13.9704      0.00000
     10      14.2571      0.00000
     11      20.2537      0.00000
     12      20.3732      0.00000

 k-point    11 :       0.6090    0.2630    0.6280
  band No.  band energies     occupation 
      1      -2.6554      2.00000
      2      -1.4996      2.00000
      3       1.3783      2.00000
      4       3.2580      2.00000
      5       6.9982      0.00000
      6      10.0662      0.00000
      7      12.7863      0.00000
      8      13.3779      0.00000
      9      13.6924      0.00000
     10      14.2797      0.00000
     11      20.1751      0.00000
     12      20.5899      0.00000

 k-point    12 :       0.6090    0.2530    0.6180
  band No.  band energies     occupation 
      1      -2.6141      2.00000
      2      -1.5434      2.00000
      3       1.4060      2.00000
      4       3.2402      2.00000
      5       6.9359      0.00000
      6       9.8639      0.00000
      7      12.9852      0.00000
      8      13.4428      0.00000
      9      13.9077      0.00000
     10      14.2498      0.00000
     11      20.2188      0.00000
     12      20.4564      0.00000

 k-point    13 :       0.6290    0.2530    0.6380
  band No.  band energies     occupation 
      1      -2.5996      2.00000
      2      -1.5563      2.00000
      3       1.3998      2.00000
      4       3.2385      2.00000
      5       6.9334      0.00000
      6       9.8614      0.00000
      7      13.0210      0.00000
      8      13.5389      0.00000
      9      13.8164      0.00000
     10      14.2059      0.00000
     11      20.2598      0.00000
     12      20.5344      0.00000

 k-point    14 :       0.6290    0.2530    0.6180
  band No.  band energies     occupation 
      1      -2.5943      2.00000
      2      -1.5609      2.00000
      3       1.3980      2.00000
      4       3.2357      2.00000
      5       6.9360      0.00000
      6       9.8609      0.00000
      7      13.0226      0.00000
      8      13.5997      0.00000
      9      13.7460      0.00000
     10      14.2127      0.00000
     11      20.2500      0.00000
     12      20.5885      0.00000

 k-point    15 :       0.6090    0.2530    0.6380
  band No.  band energies     occupation 
      1      -2.5877      2.00000
      2      -1.5637      2.00000
      3       1.4033      2.00000
      4       3.1958      2.00000
      5       6.9965      0.00000
      6       9.8652      0.00000
      7      12.8702      0.00000
      8      13.4820      0.00000
      9      13.7672      0.00000
     10      14.4618      0.00000
     11      20.0127      0.00000
     12      20.7614      0.00000

 k-point    16 :       0.6190    0.2430    0.6180
  band No.  band energies     occupation 
      1      -2.5518      2.00000
      2      -1.6066      2.00000
      3       1.4324      2.00000
      4       3.2102      2.00000
      5       6.8884      0.00000
      6       9.6611      0.00000
      7      13.1792      0.00000
      8      13.6958      0.00000
      9      13.9168      0.00000
     10      14.2442      0.00000
     11      20.2621      0.00000
     12      20.4118      0.00000

 k-point    17 :       0.6190    0.2630    0.6380
  band No.  band energies     occupation 
      1      -2.6386      2.00000
      2      -1.5137      2.00000
      3       1.3696      2.00000
      4       3.2557      2.00000
      5       6.9950      0.00000
      6      10.0630      0.00000
      7      12.8424      0.00000
      8      13.5005      0.00000
      9      13.5742      0.00000
     10      14.2143      0.00000
     11      20.2324      0.00000
     12      20.7186      0.00000

 k-point    18 :       0.6190    0.2630    0.6180
  band No.  band energies     occupation 
      1      -2.6586      2.00000
      2      -1.4982      2.00000
      3       1.3757      2.00000
      4       3.2782      2.00000
      5       6.9678      0.00000
      6      10.0642      0.00000
      7      12.8921      0.00000
      8      13.3039      0.00000
      9      13.8594      0.00000
     10      14.0801      0.00000
     11      20.3574      0.00000
     12      20.4872      0.00000

 k-point    19 :       0.6190    0.2430    0.6380
  band No.  band energies     occupation 
      1      -2.5542      2.00000
      2      -1.6027      2.00000
      3       1.4370      2.00000
      4       3.1904      2.00000
      5       6.9198      0.00000
      6       9.6642      0.00000
      7      13.0719      0.00000
      8      13.6765      0.00000
      9      13.8501      0.00000
     10      14.4382      0.00000
     11      20.0425      0.00000
     12      20.5627      0.00000


--------------------------------------------------------------------------------------------------------


 soft charge-density along one line, spin component           1
         0         1         2         3         4         5         6         7         8         9
x     8.4741    0.0000    2.0013    0.0000    0.2953    0.0000    0.0758    0.0000    0.0042    0.0000
x    -0.0015   -0.0000   -0.0006   -0.0000   -0.0000   -0.0000    0.0000    0.0000    0.0000   -0.0000
x    -0.0000   -0.0000   -0.0000   -0.0000    0.0000    0.0000
y     8.4741    0.0000    2.0013    0.0000    0.2953    0.0000    0.0758    0.0000    0.0042    0.0000
y    -0.0015   -0.0000   -0.0006   -0.0000   -0.0000   -0.0000    0.0000    0.0000    0.0000   -0.0000
y    -0.0000   -0.0000   -0.0000   -0.0000    0.0000    0.0000
z     8.4741    0.0000    2.0013    0.0000    0.2953    0.0000    0.0758    0.0000    0.0042    0.0000
z    -0.0015   -0.0000   -0.0006   -0.0000   -0.0000   -0.0000    0.0000    0.0000    0.0000   -0.0000
z    -0.0000   -0.0000   -0.0000   -0.0000    0.0000    0.0000
 total charge-density along one line
x     8.0000    0.0000    1.7150    0.0000    0.2956    0.0000    0.1456    0.0000    0.0233   -0.0000
x    -0.0026   -0.0000   -0.0006   -0.0000   -0.0003   -0.0000    0.0000   -0.0000    0.0001   -0.0000
x    -0.0000    0.0000    0.0000    0.0000   -0.0000   -0.0000    0.0000    0.0000    0.0000    0.0000
x     0.0000    0.0000   -0.0000   -0.0000   -0.0000   -0.0000    0.0000    0.0000   -0.0000   -0.0000
x     0.0000   -0.0000   -0.0000    0.0000   -0.0000    0.0000   -0.0000   -0.0000    0.0000    0.0000
y     8.0000    0.0000    1.7150    0.0000    0.2956    0.0000    0.1456    0.0000    0.0233   -0.0000
y    -0.0026   -0.0000   -0.0006    0.0000   -0.0003   -0.0000    0.0000   -0.0000    0.0001   -0.0000
y    -0.0000   -0.0000    0.0000   -0.0000   -0.0000    0.0000    0.0000   -0.0000    0.0000   -0.0000
y     0.0000    0.0000   -0.0000    0.0000   -0.0000   -0.0000    0.0000   -0.0000   -0.0000   -0.0000
y     0.0000   -0.0000   -0.0000    0.0000   -0.0000    0.0000   -0.0000    0.0000    0.0000   -0.0000
z     8.0000    0.0000    1.7150    0.0000    0.2956    0.0000    0.1456    0.0000    0.0233    0.0000
z    -0.0026   -0.0000   -0.0006    0.0000   -0.0003   -0.0000    0.0000    0.0000    0.0001    0.0000
z    -0.0000   -0.0000    0.0000    0.0000   -0.0000    0.0000    0.0000    0.0000    0.0000    0.0000
z     0.0000   -0.0000   -0.0000   -0.0000   -0.0000   -0.0000    0.0000    0.0000   -0.0000   -0.0000
z     0.0000   -0.0000   -0.0000   -0.0000    0.0000   -0.0000   -0.0000    0.0000    0.0000   -0.0000
 
 pseudopotential strength for first ion, spin component:           1
 18.448  25.738   0.000   0.000   0.000   0.000   0.000   0.000
 25.738  35.914   0.000   0.000   0.000   0.000   0.000   0.000
  0.000   0.000   4.182  -0.000  -0.000   7.792  -0.000  -0.000
  0.000   0.000  -0.000   4.182  -0.000  -0.000   7.792  -0.000
  0.000   0.000  -0.000  -0.000   4.182  -0.000  -0.000   7.792
  0.000   0.000   7.792  -0.000  -0.000  14.532  -0.000  -0.000
  0.000   0.000  -0.000   7.792  -0.000  -0.000  14.532  -0.000
  0.000   0.000  -0.000  -0.000   7.792  -0.000  -0.000  14.532
 total augmentation occupancy for first ion, spin component:           1
  4.958  -1.550  -0.000  -0.000  -0.000  -0.000  -0.000   0.000
 -1.550   0.492  -0.000  -0.000   0.000  -0.000   0.000  -0.000
  0.000  -0.000   3.114  -0.000   0.000  -0.754  -0.000  -0.000
  0.000  -0.000  -0.000   3.114   0.000   0.000  -0.754  -0.000
  0.000   0.000   0.000   0.000   3.114  -0.000  -0.000  -0.754
 -0.000  -0.000  -0.754   0.000  -0.000   0.189  -0.000   0.000
 -0.000  -0.000   0.000  -0.754  -0.000  -0.000   0.189   0.000
  0.000  -0.000  -0.000  -0.000  -0.754   0.000   0.000   0.189


------------------------ aborting loop because EDIFF is reached ----------------------------------------


 


 total charge     
 
# of ion       s       p       d       tot
------------------------------------------
    1        0.797   0.889   0.000   1.686
    2        0.797   0.889   0.000   1.686
--------------------------------------------------
tot          1.594   1.778   0.000   3.372
 
    CHARGE:  cpu time    0.0152: real time    0.0137
    FORLOC:  cpu time    0.0013: real time    0.0012
    FORNL :  cpu time    0.0193: real time    0.0173
    STRESS:  cpu time    0.0566: real time    0.0510
    FORCOR:  cpu time    0.0325: real time    0.0293
    FORHAR:  cpu time    0.0065: real time    0.0059
    MIXING:  cpu time    0.0015: real time    0.0013
    OFIELD:  cpu time    0.0000: real time    0.0000

  FORCE on cell =-STRESS in cart. coord.  units (eV):
  Direction    XX          YY          ZZ          XY          YZ          ZX
  --------------------------------------------------------------------------------------
  Alpha Z     3.33881     3.33881     3.33881
  Ewald     -75.99608   -75.99616   -75.99607     0.00001    -0.00000     0.00000
  Hartree     4.66850     4.66850     4.66850     0.00000     0.00000     0.00000
  E(xc)     -25.13417   -25.13417   -25.13417    -0.00000    -0.00000    -0.00000
  Local     -28.50357   -28.50355   -28.50355     0.00000     0.00001     0.00001
  n-local    82.13305    76.54730    77.37786     1.06892     1.99480    -4.21288
  augment   -12.05511   -12.05511   -12.05512    -0.00000    -0.00001    -0.00001
  Kinetic    57.78432    48.48006    51.39019     0.18351    -0.48193    -4.98216
  Fock        0.00000     0.00000     0.00000     0.00000     0.00000     0.00000
  -------------------------------------------------------------------------------------
  Total      -2.44403    -2.44403    -2.44403    -0.00000    -0.00000     0.00000
  in kB     -97.09446   -97.09454   -97.09443    -0.00000    -0.00000     0.00000
  external pressure =      -97.09 kB  Pullay stress =        0.00 kB


 VOLUME and BASIS-vectors are now :
 -----------------------------------------------------------------------------
  energy-cutoff  :      600.00
  volume of cell :       40.33
      direct lattice vectors                 reciprocal lattice vectors
     3.333573000  0.000000000  1.924639000     0.299978432 -0.106058350  0.000000000
     1.111191000  3.142924000  1.924639000     0.000000000  0.318175050  0.000000000
     0.000000000  0.000000000  3.849278000    -0.149989216 -0.106058350  0.259788979

  length of vectors
     3.849278403  3.849279412  3.849278000     0.318175161  0.318175050  0.318175190


 FORCES acting on ions
    electron-ion (+dipol)            ewald-force                    non-local-force                 convergence-correction
 -----------------------------------------------------------------------------------------------
   0.501E-05 0.229E-04 0.261E-06   -.892E-05 -.418E-04 -.429E-15   -.138E-15 -.144E-15 -.574E-16   0.296E-08 0.142E-07 -.122E-09
   -.501E-05 -.229E-04 -.261E-06   0.892E-05 0.418E-04 0.408E-15   0.110E-15 0.117E-15 -.223E-15   -.296E-08 -.142E-07 0.122E-09
 -----------------------------------------------------------------------------------------------
   -.136E-13 -.303E-14 -.571E-14   -.341E-15 0.468E-16 -.212E-16   -.275E-16 -.274E-16 -.281E-15   -.218E-14 -.118E-14 -.180E-14
 
 
 POSITION                                       TOTAL-FORCE (eV/Angst)
 -----------------------------------------------------------------------------------
      3.88917      2.75006      6.73624         0.000000     -0.000000      0.000000
      0.55560      0.39287      0.96232        -0.000000      0.000000     -0.000000
 -----------------------------------------------------------------------------------
    total drift:                               -0.000000     -0.000000     -0.000000


--------------------------------------------------------------------------------------------------------



  FREE ENERGIE OF THE ION-ELECTRON SYSTEM (eV)
  ---------------------------------------------------
  free  energy   TOTEN  =       -14.67596841 eV

  energy  without entropy=      -14.67596841  energy(sigma->0) =      -14.67596841
 


--------------------------------------------------------------------------------------------------------


    POTLOK:  cpu time    0.0344: real time    0.0310


--------------------------------------------------------------------------------------------------------


 writing wavefunctions
     LOOP+:  cpu time    3.9891: real time    3.5931
    4ORBIT:  cpu time    0.0000: real time    0.0000
 


 total charge     
 
# of ion       s       p       d       tot
------------------------------------------
    1        0.797   0.889   0.000   1.686
    2        0.797   0.889   0.000   1.686
--------------------------------------------------
tot          1.594   1.778   0.000   3.372
 

 total amount of memory used by VASP MPI-rank0    42681. kBytes
=======================================================================

   base      :      30000. kBytes
   nonl-proj :       1682. kBytes
   grid      :       6018. kBytes
   one-center:          6. kBytes
   wavefun   :       4975. kBytes
 
  
  
 General timing and accounting informations for this job:
 ========================================================
  
                  Total CPU time used (sec):        4.247
                            User time (sec):        4.188
                          System time (sec):        0.059
                         Elapsed time (sec):        3.827
  
                   Maximum memory used (kb):       30924.
                   Average memory used (kb):           0.
  
                          Minor page faults:        15324
                          Major page faults:            0
                 Voluntary context switches:           14
