 vasp.5.4.4.18Apr17-6-g9f103f2a35 (build Sep 03 2019 17:22:03) complex          
  
 executed on             LinuxIFC date 2024.12.15  14:42:05
 serial version


--------------------------------------------------------------------------------------------------------


 INCAR:
 POTCAR:    PAW_PBE Si 05Jan2001                  
 POTCAR:    PAW_PBE Si 05Jan2001                  
   SHA256 =  79d9987ad8750f624c4d6acb2a16d13abf6a777132adc04dc6c8399be72b42bb Si
   COPYR  = (c) Copyright 05Jan2001 Georg Kresse                                
   COPYR  = This file is part of the software VASP. Any use, copying, and all ot
   COPYR  = If you do not have a valid VASP license, you may not use, copy or di
   VRHFIN =Si: s2p2                                                             
   LEXCH  = PE                                                                  
   EATOM  =   103.0669 eV,    7.5752 Ry                                         
                                                                                
   TITEL  = PAW_PBE Si 05Jan2001                                                
   LULTRA =        F    use ultrasoft PP ?                                      
   IUNSCR =        1    unscreen: 0-lin 1-nonlin 2-no                           
   RPACOR =    1.500    partial core radius                                     
   POMASS =   28.085; ZVAL   =    4.000    mass and valenz                      
   RCORE  =    1.900    outmost cutoff radius                                   
   RWIGS  =    2.480; RWIGS  =    1.312    wigner-seitz radius (au A)           
   ENMAX  =  245.345; ENMIN  =  184.009 eV                                      
   ICORE  =        2    local potential                                         
   LCOR   =        T    correct aug charges                                     
   LPAW   =        T    paw PP                                                  
   EAUG   =  322.069                                                            
   DEXC   =    0.000                                                            
   RMAX   =    1.950    core radius for proj-oper                               
   RAUG   =    1.300    factor for augmentation sphere                          
   RDEP   =    1.993    radius for radial grids                                 
   RDEPT  =    1.837    core radius for aug-charge                              
                                                                                
   Atomic configuration                                                         
    6 entries                                                                   
     n  l   j            E        occ.                                          
     1  0  0.50     -1785.8828   2.0000                                         
     2  0  0.50      -139.4969   2.0000                                         
     2  1  1.50       -95.5546   6.0000                                         
     3  0  0.50       -10.8127   2.0000                                         
     3  1  0.50        -4.0811   2.0000                                         
     3  2  1.50        -4.0817   0.0000                                         
   Description                                                                  
     l       E           TYP  RCUT    TYP  RCUT                                 
     0    -10.8127223     23  1.900                                             
     0     -7.6451159     23  1.900                                             
     1     -4.0811372     23  1.900                                             
     1      2.4879257     23  1.900                                             
     2     -4.0817478      7  1.900                                             
  local pseudopotential read in
  partial core-charges read in
  partial kinetic energy density read in
  atomic valenz-charges read in
  non local Contribution for L=           0  read in
    real space projection operators read in
  non local Contribution for L=           0  read in
    real space projection operators read in
  non local Contribution for L=           1  read in
    real space projection operators read in
  non local Contribution for L=           1  read in
    real space projection operators read in
    PAW grid and wavefunctions read in
 
   number of l-projection  operators is LMAX  =           4
   number of lm-projection operators is LMMAX =           8
 
  PAW_PBE Si 05Jan2001                  :
 energy of atom  1       EATOM= -103.0669
 kinetic energy error for atom=    0.0003 (will be added to EATOM!!)
 
 
 POSCAR: i2a=[Si] ; Si                           
  positions in direct lattice
  No initial velocities read in
 exchange correlation table for  LEXCH =        8
   RHO(1)=    0.500       N(1)  =     2000
   RHO(2)=  100.500       N(2)  =     4000
 


--------------------------------------------------------------------------------------------------------


 ion  position               nearest neighbor table
   1  0.875  0.875  0.875-   2 2.36   2 2.36   2 2.36   2 2.36
   2  0.125  0.125  0.125-   1 2.36   1 2.36   1 2.36   1 2.36
 
  LATTYP: Found a face centered cubic cell.
 ALAT       =     5.4437011529
  
  Lattice vectors:
  
 A1 = (   3.3335730000,   0.0000000000,   1.9246390000)
 A2 = (   1.1111910000,   3.1429240000,   1.9246390000)
 A3 = (   0.0000000000,   0.0000000000,   3.8492780000)


Analysis of symmetry for initial positions (statically):
=====================================================================
 Subroutine PRICEL returns:
 Original cell was already a primitive cell.
 

 Routine SETGRP: Setting up the symmetry group for a 
 face centered cubic supercell.


 Subroutine GETGRP returns: Found 48 space group operations
 (whereof 12 operations were pure point group operations)
 out of a pool of 48 trial point group operations.


The static configuration has the point symmetry D_3d.
 The point group associated with its full space group is O_h .


Analysis of symmetry for dynamics (positions and initial velocities):
=====================================================================
 Subroutine PRICEL returns:
 Original cell was already a primitive cell.
 

 Routine SETGRP: Setting up the symmetry group for a 
 face centered cubic supercell.


 Subroutine GETGRP returns: Found 48 space group operations
 (whereof 12 operations were pure point group operations)
 out of a pool of 48 trial point group operations.


The dynamic configuration has the point symmetry D_3d.
 The point group associated with its full space group is O_h .


 Subroutine INISYM returns: Found 48 space group operations
 (whereof 12 operations are pure point group operations),
 and found     1 'primitive' translations

 
 
 KPOINTS: Explicit k-point list                   
  k-points in reciprocal lattice
Space group operators:
 irot       det(A)        alpha          n_x          n_y          n_z        tau_x        tau_y        tau_z
    1     1.000000     0.000000     1.000000     0.000000     0.000000     0.000000     0.000000     0.000000
    2    -1.000000     0.000000     1.000000     0.000000     0.000000     0.000000     0.000000     0.000000
    3     1.000000   120.000000    -0.471404    -0.333333    -0.816497     0.000000     0.000000     0.000000
    4    -1.000000   120.000000    -0.471404    -0.333333    -0.816497     0.000000     0.000000     0.000000
    5     1.000000   120.000000     0.471405     0.333333     0.816496     0.000000     0.000000     0.000000
    6    -1.000000   120.000000     0.471405     0.333333     0.816496     0.000000     0.000000     0.000000
    7     1.000000   180.000000     0.288675     0.816496    -0.500000     0.000000     0.000000     0.000000
    8    -1.000000   180.000000     0.288675     0.816496    -0.500000     0.000000     0.000000     0.000000
    9     1.000000   180.000000     0.577350    -0.816496     0.000000     0.000000     0.000000     0.000000
   10    -1.000000   180.000000     0.577350    -0.816496     0.000000     0.000000     0.000000     0.000000
   11     1.000000   180.000000     0.866025    -0.000000    -0.500000     0.000000     0.000000     0.000000
   12    -1.000000   180.000000     0.866025    -0.000000    -0.500000     0.000000     0.000000     0.000000
   13     1.000000    90.000000    -0.816497    -0.577350    -0.000000     0.500000     0.000000     0.000000
   14    -1.000000    90.000000    -0.816497    -0.577350    -0.000000     0.500000     0.000000     0.000000
   15     1.000000   180.000000     0.866025    -0.000000     0.500000     0.500000     0.000000     0.000000
   16    -1.000000   180.000000     0.866025    -0.000000     0.500000     0.500000     0.000000     0.000000
   17     1.000000    90.000000     0.408248    -0.577350     0.707107     0.500000     0.000000     0.000000
   18    -1.000000    90.000000     0.408248    -0.577350     0.707107     0.500000     0.000000     0.000000
   19     1.000000   180.000000     0.816497     0.577350     0.000000     0.000000     0.000000     0.500000
   20    -1.000000   180.000000     0.816497     0.577350     0.000000     0.000000     0.000000     0.500000
   21     1.000000   120.000000     0.942809    -0.333333     0.000000     0.000000     0.000000     0.500000
   22    -1.000000   120.000000     0.942809    -0.333333     0.000000     0.000000     0.000000     0.500000
   23     1.000000   120.000000     0.000000    -1.000000     0.000000     0.000000     0.000000     0.500000
   24    -1.000000   120.000000     0.000000    -1.000000     0.000000     0.000000     0.000000     0.500000
   25     1.000000    90.000000     0.816497     0.577350    -0.000000     0.000000     0.500000     0.000000
   26    -1.000000    90.000000     0.816497     0.577350    -0.000000     0.000000     0.500000     0.000000
   27     1.000000    90.000000     0.408249    -0.577350    -0.707107     0.000000     0.500000     0.000000
   28    -1.000000    90.000000     0.408249    -0.577350    -0.707107     0.000000     0.500000     0.000000
   29     1.000000   179.999999     0.288675     0.816496     0.500000     0.000000     0.500000     0.000000
   30    -1.000000   179.999999     0.288675     0.816496     0.500000     0.000000     0.500000     0.000000
   31     1.000000   120.000000     0.000000     1.000000     0.000000     0.500000     0.000000     0.000000
   32    -1.000000   120.000000     0.000000     1.000000     0.000000     0.500000     0.000000     0.000000
   33     1.000000   120.000000     0.471404     0.333333    -0.816497     0.500000     0.000000     0.000000
   34    -1.000000   120.000000     0.471404     0.333333    -0.816497     0.500000     0.000000     0.000000
   35     1.000000   180.000000    -0.408248     0.577350     0.707107     0.500000     0.000000     0.000000
   36    -1.000000   180.000000    -0.408248     0.577350     0.707107     0.500000     0.000000     0.000000
   37     1.000000    90.000000    -0.408249     0.577350    -0.707107     0.000000     0.000000     0.500000
   38    -1.000000    90.000000    -0.408249     0.577350    -0.707107     0.000000     0.000000     0.500000
   39     1.000000   180.000000    -0.000000     0.000000     1.000000     0.000000     0.000000     0.500000
   40    -1.000000   180.000000    -0.000000     0.000000     1.000000     0.000000     0.000000     0.500000
   41     1.000000    90.000000    -0.408248     0.577350     0.707107     0.000000     0.000000     0.500000
   42    -1.000000    90.000000    -0.408248     0.577350     0.707107     0.000000     0.000000     0.500000
   43     1.000000   120.000000    -0.942809     0.333333     0.000000     0.000000     0.500000     0.000000
   44    -1.000000   120.000000    -0.942809     0.333333     0.000000     0.000000     0.500000     0.000000
   45     1.000000   180.000000    -0.408248     0.577350    -0.707107     0.000000     0.500000     0.000000
   46    -1.000000   180.000000    -0.408248     0.577350    -0.707107     0.000000     0.500000     0.000000
   47     1.000000   120.000000    -0.471405    -0.333333     0.816496     0.000000     0.500000     0.000000
   48    -1.000000   120.000000    -0.471405    -0.333333     0.816496     0.000000     0.500000     0.000000


--------------------------------------------------------------------------------------------------------




 Dimension of arrays:
   k-points           NKPTS =     19   k-points in BZ     NKDIM =     19   number of bands    NBANDS=     12
   number of dos      NEDOS =    301   number of ions     NIONS =      2
   non local maximal  LDIM  =      4   non local SUM 2l+1 LMDIM =      8
   total plane-waves  NPLWV =  13824
   max r-space proj   IRMAX =      1   max aug-charges    IRDMAX=  11659
   dimension x,y,z NGX =    24 NGY =   24 NGZ =   24
   dimension x,y,z NGXF=    48 NGYF=   48 NGZF=   48
   support grid    NGXF=    48 NGYF=   48 NGZF=   48
   ions per type =               2
   NGX,Y,Z   is equivalent  to a cutoff of  10.37, 10.37, 10.37 a.u.
   NGXF,Y,Z  is equivalent  to a cutoff of  20.73, 20.73, 20.73 a.u.

 SYSTEM =  auto Fully inherited from the final st  
 POSCAR =  i2a=[Si] ; Si                           

 Startparameter for this run:
   NWRITE =      2    write-flag & timer
   PREC   = normal    normal or accurate (medium, high low for compatibility)
   ISTART =      0    job   : 0-new  1-cont  2-samecut
   ICHARG =      2    charge: 1-file 2-atom 10-const
   ISPIN  =      1    spin polarized calculation?
   LNONCOLLINEAR =      F non collinear calculations
   LSORBIT =      F    spin-orbit coupling
   INIWAV =      1    electr: 0-lowe 1-rand  2-diag
   LASPH  =      F    aspherical Exc in radial PAW
   METAGGA=      F    non-selfconsistent MetaGGA calc.

 Electronic Relaxation 1
   ENCUT  =  600.0 eV  44.10 Ry    6.64 a.u.   7.69  7.69  7.69*2*pi/ulx,y,z
   ENINI  =  600.0     initial cutoff
   ENAUG  =  700.0 eV  augmentation charge cutoff
   NELM   =     60;   NELMIN=  2; NELMDL= -5     # of ELM steps 
   EDIFF  = 0.1E-04   stopping-criterion for ELM
   LREAL  =      F    real-space projection
   NLSPLINE    = F    spline interpolate recip. space projectors
   LCOMPAT=      F    compatible to vasp.4.4
   GGA_COMPAT  = T    GGA compatible to vasp.4.4-vasp.4.6
   LMAXPAW     = -100 max onsite density
   LMAXMIX     =    2 max onsite mixed and CHGCAR
   VOSKOWN=      0    Vosko Wilk Nusair interpolation
   ROPT   =    0.00000
 Ionic relaxation
   EDIFFG = 0.1E-03   stopping-criterion for IOM
   NSW    =      0    number of steps for IOM
   NBLOCK =      1;   KBLOCK =      1    inner block; outer block 
   IBRION =     -1    ionic relax: 0-MD 1-quasi-New 2-CG
   NFREE  =      0    steps in history (QN), initial steepest desc. (CG)
   ISIF   =      2    stress and relaxation
   IWAVPR =      0    prediction:  0-non 1-charg 2-wave 3-comb
   ISYM   =      2    0-nonsym 1-usesym 2-fastsym
   LCORR  =      T    Harris-Foulkes like correction to forces

   POTIM  = 0.5000    time-step for ionic-motion
   TEIN   =    0.0    initial temperature
   TEBEG  =    0.0;   TEEND  =   0.0 temperature during run
   SMASS  =  -3.00    Nose mass-parameter (am)
   estimated Nose-frequenzy (Omega)   =  0.10E-29 period in steps =****** mass=  -0.339E-27a.u.
   SCALEE = 1.0000    scale energy and forces
   NPACO  =    256;   APACO  = 16.0  distance and # of slots for P.C.
   PSTRESS=    0.0 pullay stress

  Mass of Ions in am
   POMASS =  28.09
  Ionic Valenz
   ZVAL   =   4.00
  Atomic Wigner-Seitz radii
   RWIGS  =  -1.00
  virtual crystal weights 
   VCA    =   1.00
   NELECT =       8.0000    total number of electrons
   NUPDOWN=      -1.0000    fix difference up-down

 DOS related values:
   EMIN   =  10.00;   EMAX   =-10.00  energy-range for DOS
   EFERMI =   0.00
   ISMEAR =     0;   SIGMA  =   0.20  broadening in eV -4-tet -1-fermi 0-gaus

 Electronic relaxation 2 (details)
   IALGO  =     38    algorithm
   LDIAG  =      T    sub-space diagonalisation (order eigenvalues)
   LSUBROT=      F    optimize rotation matrix (better conditioning)
   TURBO    =      0    0=normal 1=particle mesh
   IRESTART =      0    0=no restart 2=restart with 2 vectors
   NREBOOT  =      0    no. of reboots
   NMIN     =      0    reboot dimension
   EREF     =   0.00    reference energy to select bands
   IMIX   =      4    mixing-type and parameters
     AMIX     =   0.40;   BMIX     =  1.00
     AMIX_MAG =   1.60;   BMIX_MAG =  1.00
     AMIN     =   0.10
     WC   =   100.;   INIMIX=   1;  MIXPRE=   1;  MAXMIX= -45

 Intra band minimization:
   WEIMIN = 0.0000     energy-eigenvalue tresh-hold
   EBREAK =  0.21E-06  absolut break condition
   DEPER  =   0.30     relativ break condition  

   TIME   =   0.40     timestep for ELM

  volume/ion in A,a.u.               =      20.16       136.08
  Fermi-wavevector in a.u.,A,eV,Ry     =   0.954766  1.804247 12.402783  0.911579
  Thomas-Fermi vector in A             =   2.083543
 
 Write flags
   LWAVE        =      T    write WAVECAR
   LDOWNSAMPLE  =      F    k-point downsampling of WAVECAR
   LCHARG       =      T    write CHGCAR
   LVTOT        =      F    write LOCPOT, total local potential
   LVHAR        =      F    write LOCPOT, Hartree potential only
   LELF         =      F    write electronic localiz. function (ELF)
   LORBIT       =     11    0 simple, 1 ext, 2 COOP (PROOUT), +10 PAW based schemes


 Dipole corrections
   LMONO  =      F    monopole corrections only (constant potential shift)
   LDIPOL =      F    correct potential (dipole corrections)
   IDIPOL =      0    1-x, 2-y, 3-z, 4-all directions 
   EPSILON=  1.0000000 bulk dielectric constant

 Exchange correlation treatment:
   GGA     =    --    GGA type
   LEXCH   =     8    internal setting for exchange type
   VOSKOWN=      0    Vosko Wilk Nusair interpolation
   LHFCALC =     F    Hartree Fock is set to
   LHFONE  =     F    Hartree Fock one center treatment
   AEXX    =    0.0000 exact exchange contribution

 Linear response parameters
   LEPSILON=     F    determine dielectric tensor
   LRPA    =     F    only Hartree local field effects (RPA)
   LNABLA  =     F    use nabla operator in PAW spheres
   LVEL    =     F    velocity operator in full k-point grid
   LINTERFAST=   F  fast interpolation
   KINTER  =     0    interpolate to denser k-point grid
   CSHIFT  =0.1000    complex shift for real part using Kramers Kronig
   OMEGAMAX=  -1.0    maximum frequency
   DEG_THRESHOLD= 0.2000000E-02 threshold for treating states as degnerate
   RTIME   =   -0.100 relaxation time in fs
  (WPLASMAI=    0.000 imaginary part of plasma frequency in eV, 0.658/RTIME)
   DFIELD  = 0.0000000 0.0000000 0.0000000 field for delta impulse in time
 
 Orbital magnetization related:
   ORBITALMAG=     F  switch on orbital magnetization
   LCHIMAG   =     F  perturbation theory with respect to B field
   DQ        =  0.001000  dq finite difference perturbation B field
   LLRAUG    =     F  two centre corrections for induced B field



--------------------------------------------------------------------------------------------------------


 Static calculation
 charge density and potential will be updated during run
 non-spin polarized calculation
 Variant of blocked Davidson
 Davidson routine will perform the subspace rotation
 perform sub-space diagonalisation
    after iterative eigenvector-optimisation
 modified Broyden-mixing scheme, WC =      100.0
 initial mixing is a Kerker type mixing with AMIX =  0.4000 and BMIX =      1.0000
 Hartree-type preconditioning will be used
 using additional bands            8
 reciprocal scheme for non local part
 use partial core corrections
 calculate Harris-corrections to forces 
   (improved forces if not selfconsistent)
 use gradient corrections 
 use of overlap-Matrix (Vanderbilt PP)
 Gauss-broadening in eV      SIGMA  =   0.20


--------------------------------------------------------------------------------------------------------


  energy-cutoff  :      600.00
  volume of cell :       40.33
      direct lattice vectors                 reciprocal lattice vectors
     3.333573000  0.000000000  1.924639000     0.299978432 -0.106058350  0.000000000
     1.111191000  3.142924000  1.924639000     0.000000000  0.318175050  0.000000000
     0.000000000  0.000000000  3.849278000    -0.149989216 -0.106058350  0.259788979

  length of vectors
     3.849278403  3.849279412  3.849278000     0.318175161  0.318175050  0.318175190


 
 k-points in units of 2pi/SCALE and weight: Explicit k-point list                   
   0.03749730 -0.05302917  0.19484173       0.053
   0.03449752 -0.05196859  0.19484173       0.053
   0.04049709 -0.05408976  0.19484173       0.053
   0.03749730 -0.05621093  0.19484173       0.053
   0.03749730 -0.04984742  0.19484173       0.053
   0.03899720 -0.05196859  0.19224384       0.053
   0.03599741 -0.05408976  0.19743962       0.053
   0.03449752 -0.05515034  0.19484173       0.053
   0.04049709 -0.05090801  0.19484173       0.053
   0.04049709 -0.05727151  0.19484173       0.053
   0.03449752 -0.04878684  0.19484173       0.053
   0.03599741 -0.05090801  0.19224384       0.053
   0.03899720 -0.05515034  0.19743962       0.053
   0.04199698 -0.05302917  0.19224384       0.053
   0.03299763 -0.05302917  0.19743962       0.053
   0.03899720 -0.05515034  0.19224384       0.053
   0.03599741 -0.05090801  0.19743962       0.053
   0.03899720 -0.04878684  0.19224384       0.053
   0.03599741 -0.05727151  0.19743962       0.053
 
 k-points in reciprocal lattice and weights: Explicit k-point list                   
   0.50000000  0.25000000  0.75000000       0.053
   0.49000000  0.25000000  0.75000000       0.053
   0.51000000  0.25000000  0.75000000       0.053
   0.50000000  0.24000000  0.75000000       0.053
   0.50000000  0.26000000  0.75000000       0.053
   0.50000000  0.25000000  0.74000000       0.053
   0.50000000  0.25000000  0.76000000       0.053
   0.49000000  0.24000000  0.75000000       0.053
   0.51000000  0.26000000  0.75000000       0.053
   0.51000000  0.24000000  0.75000000       0.053
   0.49000000  0.26000000  0.75000000       0.053
   0.49000000  0.25000000  0.74000000       0.053
   0.51000000  0.25000000  0.76000000       0.053
   0.51000000  0.25000000  0.74000000       0.053
   0.49000000  0.25000000  0.76000000       0.053
   0.50000000  0.24000000  0.74000000       0.053
   0.50000000  0.26000000  0.76000000       0.053
   0.50000000  0.26000000  0.74000000       0.053
   0.50000000  0.24000000  0.76000000       0.053
 
 position of ions in fractional coordinates (direct lattice) 
   0.87500000  0.87500000  0.87500000
   0.12500000  0.12500000  0.12500000
 
 position of ions in cartesian coordinates  (Angst):
   3.88916850  2.75005850  6.73623650
   0.55559550  0.39286550  0.96231950
 


--------------------------------------------------------------------------------------------------------


 k-point  1 :   0.5000 0.2500 0.7500  plane waves:    1348
 k-point  2 :   0.4900 0.2500 0.7500  plane waves:    1348
 k-point  3 :   0.5100 0.2500 0.7500  plane waves:    1348
 k-point  4 :   0.5000 0.2400 0.7500  plane waves:    1348
 k-point  5 :   0.5000 0.2600 0.7500  plane waves:    1348
 k-point  6 :   0.5000 0.2500 0.7400  plane waves:    1348
 k-point  7 :   0.5000 0.2500 0.7600  plane waves:    1348
 k-point  8 :   0.4900 0.2400 0.7500  plane waves:    1348
 k-point  9 :   0.5100 0.2600 0.7500  plane waves:    1348
 k-point 10 :   0.5100 0.2400 0.7500  plane waves:    1348
 k-point 11 :   0.4900 0.2600 0.7500  plane waves:    1348
 k-point 12 :   0.4900 0.2500 0.7400  plane waves:    1348
 k-point 13 :   0.5100 0.2500 0.7600  plane waves:    1348
 k-point 14 :   0.5100 0.2500 0.7400  plane waves:    1348
 k-point 15 :   0.4900 0.2500 0.7600  plane waves:    1348
 k-point 16 :   0.5000 0.2400 0.7400  plane waves:    1348
 k-point 17 :   0.5000 0.2600 0.7600  plane waves:    1348
 k-point 18 :   0.5000 0.2600 0.7400  plane waves:    1348
 k-point 19 :   0.5000 0.2400 0.7600  plane waves:    1348

 maximum number of plane-waves:      1348
 maximum index in each direction: 
   IXMAX=    7   IYMAX=    7   IZMAX=    6
   IXMIN=   -8   IYMIN=   -7   IZMIN=   -8


 total amount of memory used by VASP MPI-rank0    42681. kBytes
=======================================================================

   base      :      30000. kBytes
   nonl-proj :       1682. kBytes
   grid      :       6018. kBytes
   one-center:          6. kBytes
   wavefun   :       4975. kBytes
 
     INWAV:  cpu time    0.0000: real time    0.0000
 Broyden mixing: mesh for mixing (old mesh)
   NGX = 15   NGY = 15   NGZ = 15
  (NGX  = 48   NGY  = 48   NGZ  = 48)
  gives a total of   3375 points

 initial charge density was supplied:
 charge density of overlapping atoms calculated
 number of electron       8.0000000 magnetization 
 keeping initial charge density in first step


--------------------------------------------------------------------------------------------------------


 Maximum index for augmentation-charges        11057 (set IRDMAX)


--------------------------------------------------------------------------------------------------------


 First call to EWALD:  gamma=   0.517
 Maximum number of real-space cells 3x 3x 3
 Maximum number of reciprocal cells 3x 3x 3

    FEWALD:  cpu time    0.0009: real time    0.0008


--------------------------------------- Iteration      1(   1)  ---------------------------------------


    POTLOK:  cpu time    0.0328: real time    0.0297
    SETDIJ:  cpu time    0.0020: real time    0.0018
     EDDAV:  cpu time    0.2850: real time    0.2574
       DOS:  cpu time    0.0005: real time    0.0004
    --------------------------------------------
      LOOP:  cpu time    0.3203: real time    0.2893

 eigenvalue-minimisations  :   456
 total energy-change (2. order) :-0.1173185E+01  (-0.3357226E+03)
 number of electron       8.0000000 magnetization 
 augmentation part        8.0000000 magnetization 

 Free energy of the ion-electron system (eV)
  ---------------------------------------------------
  alpha Z        PSCENC =         3.33880741
  Ewald energy   TEWEN  =      -227.98820643
  -Hartree energ DENC   =       -11.11484531
  -exchange      EXHF   =         0.00000000
  -V(xc)+E(xc)   XCENC  =       -18.63153637
  PAW double counting   =       176.24759923     -141.06103558
  entropy T*S    EENTRO =        -0.00000000
  eigenvalues    EBANDS =        11.90291301
  atomic energy  EATOM  =       206.13311910
  Solvation  Ediel_sol  =         0.00000000
  ---------------------------------------------------
  free energy    TOTEN  =        -1.17318494 eV

  energy without entropy =       -1.17318494  energy(sigma->0) =       -1.17318494


--------------------------------------------------------------------------------------------------------




--------------------------------------- Iteration      1(   2)  ---------------------------------------


     EDDAV:  cpu time    0.3470: real time    0.3123
       DOS:  cpu time    0.0006: real time    0.0005
    --------------------------------------------
      LOOP:  cpu time    0.3475: real time    0.3128

 eigenvalue-minimisations  :   600
 total energy-change (2. order) :-0.1471779E+02  (-0.1452832E+02)
 number of electron       8.0000000 magnetization 
 augmentation part        8.0000000 magnetization 

 Free energy of the ion-electron system (eV)
  ---------------------------------------------------
  alpha Z        PSCENC =         3.33880741
  Ewald energy   TEWEN  =      -227.98820643
  -Hartree energ DENC   =       -11.11484531
  -exchange      EXHF   =         0.00000000
  -V(xc)+E(xc)   XCENC  =       -18.63153637
  PAW double counting   =       176.24759923     -141.06103558
  entropy T*S    EENTRO =        -0.00000000
  eigenvalues    EBANDS =        -2.81488185
  atomic energy  EATOM  =       206.13311910
  Solvation  Ediel_sol  =         0.00000000
  ---------------------------------------------------
  free energy    TOTEN  =       -15.89097981 eV

  energy without entropy =      -15.89097981  energy(sigma->0) =      -15.89097981


--------------------------------------------------------------------------------------------------------




--------------------------------------- Iteration      1(   3)  ---------------------------------------


     EDDAV:  cpu time    0.3420: real time    0.3078
       DOS:  cpu time    0.0007: real time    0.0006
    --------------------------------------------
      LOOP:  cpu time    0.3427: real time    0.3084

 eigenvalue-minimisations  :   596
 total energy-change (2. order) :-0.3848443E+00  (-0.3841182E+00)
 number of electron       8.0000000 magnetization 
 augmentation part        8.0000000 magnetization 

 Free energy of the ion-electron system (eV)
  ---------------------------------------------------
  alpha Z        PSCENC =         3.33880741
  Ewald energy   TEWEN  =      -227.98820643
  -Hartree energ DENC   =       -11.11484531
  -exchange      EXHF   =         0.00000000
  -V(xc)+E(xc)   XCENC  =       -18.63153637
  PAW double counting   =       176.24759923     -141.06103558
  entropy T*S    EENTRO =        -0.00000000
  eigenvalues    EBANDS =        -3.19972619
  atomic energy  EATOM  =       206.13311910
  Solvation  Ediel_sol  =         0.00000000
  ---------------------------------------------------
  free energy    TOTEN  =       -16.27582414 eV

  energy without entropy =      -16.27582414  energy(sigma->0) =      -16.27582414


--------------------------------------------------------------------------------------------------------




--------------------------------------- Iteration      1(   4)  ---------------------------------------


     EDDAV:  cpu time    0.3095: real time    0.2785
       DOS:  cpu time    0.0007: real time    0.0007
    --------------------------------------------
      LOOP:  cpu time    0.3102: real time    0.2792

 eigenvalue-minimisations  :   520
 total energy-change (2. order) :-0.3192516E-02  (-0.3192252E-02)
 number of electron       8.0000000 magnetization 
 augmentation part        8.0000000 magnetization 

 Free energy of the ion-electron system (eV)
  ---------------------------------------------------
  alpha Z        PSCENC =         3.33880741
  Ewald energy   TEWEN  =      -227.98820643
  -Hartree energ DENC   =       -11.11484531
  -exchange      EXHF   =         0.00000000
  -V(xc)+E(xc)   XCENC  =       -18.63153637
  PAW double counting   =       176.24759923     -141.06103558
  entropy T*S    EENTRO =        -0.00000000
  eigenvalues    EBANDS =        -3.20291870
  atomic energy  EATOM  =       206.13311910
  Solvation  Ediel_sol  =         0.00000000
  ---------------------------------------------------
  free energy    TOTEN  =       -16.27901666 eV

  energy without entropy =      -16.27901666  energy(sigma->0) =      -16.27901666


--------------------------------------------------------------------------------------------------------




--------------------------------------- Iteration      1(   5)  ---------------------------------------


     EDDAV:  cpu time    0.3156: real time    0.2840
       DOS:  cpu time    0.0007: real time    0.0006
    CHARGE:  cpu time    0.0153: real time    0.0138
    MIXING:  cpu time    0.0011: real time    0.0010
    --------------------------------------------
      LOOP:  cpu time    0.3327: real time    0.2994

 eigenvalue-minimisations  :   536
 total energy-change (2. order) :-0.3754724E-04  (-0.3754722E-04)
 number of electron       7.9999999 magnetization 
 augmentation part       -0.4848867 magnetization 

 Broyden mixing:
  rms(total) = 0.43293E+00    rms(broyden)= 0.43293E+00
  rms(prec ) = 0.63958E+00
  weight for this iteration     100.00

 Free energy of the ion-electron system (eV)
  ---------------------------------------------------
  alpha Z        PSCENC =         3.33880741
  Ewald energy   TEWEN  =      -227.98820643
  -Hartree energ DENC   =       -11.11484531
  -exchange      EXHF   =         0.00000000
  -V(xc)+E(xc)   XCENC  =       -18.63153637
  PAW double counting   =       176.24759923     -141.06103558
  entropy T*S    EENTRO =        -0.00000000
  eigenvalues    EBANDS =        -3.20295625
  atomic energy  EATOM  =       206.13311910
  Solvation  Ediel_sol  =         0.00000000
  ---------------------------------------------------
  free energy    TOTEN  =       -16.27905420 eV

  energy without entropy =      -16.27905420  energy(sigma->0) =      -16.27905420


--------------------------------------------------------------------------------------------------------




--------------------------------------- Iteration      1(   6)  ---------------------------------------


    POTLOK:  cpu time    0.0312: real time    0.0281
    SETDIJ:  cpu time    0.0020: real time    0.0018
     EDDAV:  cpu time    0.3042: real time    0.2739
       DOS:  cpu time    0.0007: real time    0.0006
    CHARGE:  cpu time    0.0150: real time    0.0136
    MIXING:  cpu time    0.0012: real time    0.0011
    --------------------------------------------
      LOOP:  cpu time    0.3544: real time    0.3191

 eigenvalue-minimisations  :   508
 total energy-change (2. order) : 0.2363449E-01  (-0.9253221E-03)
 number of electron       7.9999999 magnetization 
 augmentation part       -0.4837163 magnetization 

 Broyden mixing:
  rms(total) = 0.25526E+00    rms(broyden)= 0.25526E+00
  rms(prec ) = 0.38317E+00
  weight for this iteration     100.00

 eigenvalues of (default mixing * dielectric matrix)
  average eigenvalue GAMMA=   2.4268
  2.4268

 Free energy of the ion-electron system (eV)
  ---------------------------------------------------
  alpha Z        PSCENC =         3.33880741
  Ewald energy   TEWEN  =      -227.98820643
  -Hartree energ DENC   =       -11.66706838
  -exchange      EXHF   =         0.00000000
  -V(xc)+E(xc)   XCENC  =       -18.49690114
  PAW double counting   =       375.16642337     -340.04435127
  entropy T*S    EENTRO =        -0.00000000
  eigenvalues    EBANDS =        -2.69724236
  atomic energy  EATOM  =       206.13311910
  Solvation  Ediel_sol  =         0.00000000
  ---------------------------------------------------
  free energy    TOTEN  =       -16.25541971 eV

  energy without entropy =      -16.25541971  energy(sigma->0) =      -16.25541971


--------------------------------------------------------------------------------------------------------




--------------------------------------- Iteration      1(   7)  ---------------------------------------


    POTLOK:  cpu time    0.0309: real time    0.0278
    SETDIJ:  cpu time    0.0020: real time    0.0018
     EDDAV:  cpu time    0.2827: real time    5.2699
       DOS:  cpu time    0.0007: real time    0.0007
    CHARGE:  cpu time    0.0151: real time    0.0151
    MIXING:  cpu time    0.0013: real time    0.0013
    --------------------------------------------
      LOOP:  cpu time    0.3327: real time    5.3166

 eigenvalue-minimisations  :   456
 total energy-change (2. order) : 0.1402380E-01  (-0.1999990E-02)
 number of electron       7.9999999 magnetization 
 augmentation part       -0.4828394 magnetization 

 Broyden mixing:
  rms(total) = 0.21533E-01    rms(broyden)= 0.21533E-01
  rms(prec ) = 0.28556E-01
  weight for this iteration     100.00

 eigenvalues of (default mixing * dielectric matrix)
  average eigenvalue GAMMA=   3.0625
  2.7148  3.4102

 Free energy of the ion-electron system (eV)
  ---------------------------------------------------
  alpha Z        PSCENC =         3.33880741
  Ewald energy   TEWEN  =      -227.98820643
  -Hartree energ DENC   =       -12.58383071
  -exchange      EXHF   =         0.00000000
  -V(xc)+E(xc)   XCENC  =       -18.27181025
  PAW double counting   =       826.60899055     -791.57679276
  entropy T*S    EENTRO =        -0.00000000
  eigenvalues    EBANDS =        -1.90167283
  atomic energy  EATOM  =       206.13311910
  Solvation  Ediel_sol  =         0.00000000
  ---------------------------------------------------
  free energy    TOTEN  =       -16.24139591 eV

  energy without entropy =      -16.24139591  energy(sigma->0) =      -16.24139591


--------------------------------------------------------------------------------------------------------




--------------------------------------- Iteration      1(   8)  ---------------------------------------


    POTLOK:  cpu time    0.0312: real time    0.0312
    SETDIJ:  cpu time    0.0020: real time    0.0020
     EDDAV:  cpu time    0.2979: real time    0.2980
       DOS:  cpu time    0.0007: real time    0.0007
    CHARGE:  cpu time    0.0150: real time    0.0150
    MIXING:  cpu time    0.0013: real time    0.0013
    --------------------------------------------
      LOOP:  cpu time    0.3481: real time    0.3481

 eigenvalue-minimisations  :   496
 total energy-change (2. order) :-0.7477720E-04  (-0.1148895E-03)
 number of electron       7.9999999 magnetization 
 augmentation part       -0.4835668 magnetization 

 Broyden mixing:
  rms(total) = 0.51203E-02    rms(broyden)= 0.51203E-02
  rms(prec ) = 0.92015E-02
  weight for this iteration     100.00

 eigenvalues of (default mixing * dielectric matrix)
  average eigenvalue GAMMA=   2.1812
  1.3874  2.7900  2.3663

 Free energy of the ion-electron system (eV)
  ---------------------------------------------------
  alpha Z        PSCENC =         3.33880741
  Ewald energy   TEWEN  =      -227.98820643
  -Hartree energ DENC   =       -12.52221888
  -exchange      EXHF   =         0.00000000
  -V(xc)+E(xc)   XCENC  =       -18.27380173
  PAW double counting   =       781.87991264     -746.83440837
  entropy T*S    EENTRO =        -0.00000000
  eigenvalues    EBANDS =        -1.97467445
  atomic energy  EATOM  =       206.13311910
  Solvation  Ediel_sol  =         0.00000000
  ---------------------------------------------------
  free energy    TOTEN  =       -16.24147069 eV

  energy without entropy =      -16.24147069  energy(sigma->0) =      -16.24147069


--------------------------------------------------------------------------------------------------------




--------------------------------------- Iteration      1(   9)  ---------------------------------------


    POTLOK:  cpu time    0.0308: real time    0.0308
    SETDIJ:  cpu time    0.0019: real time    0.0019
     EDDAV:  cpu time    0.3054: real time    0.3055
       DOS:  cpu time    0.0007: real time    0.0007
    --------------------------------------------
      LOOP:  cpu time    0.3389: real time    0.3389

 eigenvalue-minimisations  :   516
 total energy-change (2. order) : 0.4012625E-05  (-0.3121606E-05)
 number of electron       7.9999999 magnetization 
 augmentation part       -0.4835668 magnetization 

 Free energy of the ion-electron system (eV)
  ---------------------------------------------------
  alpha Z        PSCENC =         3.33880741
  Ewald energy   TEWEN  =      -227.98820643
  -Hartree energ DENC   =       -12.55410752
  -exchange      EXHF   =         0.00000000
  -V(xc)+E(xc)   XCENC  =       -18.26732694
  PAW double counting   =       787.56483078     -752.52187615
  entropy T*S    EENTRO =        -0.00000000
  eigenvalues    EBANDS =        -1.94670694
  atomic energy  EATOM  =       206.13311910
  Solvation  Ediel_sol  =         0.00000000
  ---------------------------------------------------
  free energy    TOTEN  =       -16.24146668 eV

  energy without entropy =      -16.24146668  energy(sigma->0) =      -16.24146668


--------------------------------------------------------------------------------------------------------




 average (electrostatic) potential at core
  the test charge radii are     0.9892
  (the norm of the test charge is              1.0000)
       1 -83.9977       2 -83.9977
 
 
 
 E-fermi :   2.7745     XC(G=0):  -9.5398     alpha+bet :-11.8943


 k-point     1 :       0.5000    0.2500    0.7500
  band No.  band energies     occupation 
      1      -2.1990      2.00000
      2      -2.1990      2.00000
      3       1.7094      2.00000
      4       1.7094      2.00000
      5       9.8117      0.00000
      6       9.8117      0.00000
      7      10.5033      0.00000
      8      10.5033      0.00000
      9      15.9957      0.00000
     10      15.9957      0.00000
     11      18.4718      0.00000
     12      18.4718      0.00000

 k-point     2 :       0.4900    0.2500    0.7500
  band No.  band energies     occupation 
      1      -2.2638      2.00000
      2      -2.1349      2.00000
      3       1.6643      2.00000
      4       1.7589      2.00000
      5       9.7369      0.00000
      6       9.8392      0.00000
      7      10.4720      0.00000
      8      10.5871      0.00000
      9      15.8711      0.00000
     10      16.1077      0.00000
     11      18.3535      0.00000
     12      18.6004      0.00000

 k-point     3 :       0.5100    0.2500    0.7500
  band No.  band energies     occupation 
      1      -2.2638      2.00000
      2      -2.1349      2.00000
      3       1.6643      2.00000
      4       1.7589      2.00000
      5       9.7369      0.00000
      6       9.8392      0.00000
      7      10.4720      0.00000
      8      10.5871      0.00000
      9      15.8711      0.00000
     10      16.1077      0.00000
     11      18.3535      0.00000
     12      18.6004      0.00000

 k-point     4 :       0.5000    0.2400    0.7500
  band No.  band energies     occupation 
      1      -2.2638      2.00000
      2      -2.1349      2.00000
      3       1.6643      2.00000
      4       1.7589      2.00000
      5       9.7369      0.00000
      6       9.8392      0.00000
      7      10.4720      0.00000
      8      10.5871      0.00000
      9      15.8711      0.00000
     10      16.1077      0.00000
     11      18.3535      0.00000
     12      18.6004      0.00000

 k-point     5 :       0.5000    0.2600    0.7500
  band No.  band energies     occupation 
      1      -2.2638      2.00000
      2      -2.1349      2.00000
      3       1.6643      2.00000
      4       1.7589      2.00000
      5       9.7369      0.00000
      6       9.8392      0.00000
      7      10.4720      0.00000
      8      10.5871      0.00000
      9      15.8711      0.00000
     10      16.1077      0.00000
     11      18.3535      0.00000
     12      18.6004      0.00000

 k-point     6 :       0.5000    0.2500    0.7400
  band No.  band energies     occupation 
      1      -2.2638      2.00000
      2      -2.1349      2.00000
      3       1.6643      2.00000
      4       1.7589      2.00000
      5       9.7369      0.00000
      6       9.8392      0.00000
      7      10.4720      0.00000
      8      10.5871      0.00000
      9      15.8711      0.00000
     10      16.1077      0.00000
     11      18.3535      0.00000
     12      18.6004      0.00000

 k-point     7 :       0.5000    0.2500    0.7600
  band No.  band energies     occupation 
      1      -2.2638      2.00000
      2      -2.1349      2.00000
      3       1.6643      2.00000
      4       1.7589      2.00000
      5       9.7369      0.00000
      6       9.8392      0.00000
      7      10.4720      0.00000
      8      10.5871      0.00000
      9      15.8711      0.00000
     10      16.1077      0.00000
     11      18.3535      0.00000
     12      18.6004      0.00000

 k-point     8 :       0.4900    0.2400    0.7500
  band No.  band energies     occupation 
      1      -2.2905      2.00000
      2      -2.1083      2.00000
      3       1.6454      2.00000
      4       1.7793      2.00000
      5       9.7341      0.00000
      6       9.8680      0.00000
      7      10.4410      0.00000
      8      10.5940      0.00000
      9      15.8174      0.00000
     10      16.1485      0.00000
     11      18.3103      0.00000
     12      18.6556      0.00000

 k-point     9 :       0.5100    0.2600    0.7500
  band No.  band energies     occupation 
      1      -2.2905      2.00000
      2      -2.1083      2.00000
      3       1.6454      2.00000
      4       1.7793      2.00000
      5       9.7341      0.00000
      6       9.8680      0.00000
      7      10.4410      0.00000
      8      10.5940      0.00000
      9      15.8174      0.00000
     10      16.1485      0.00000
     11      18.3103      0.00000
     12      18.6556      0.00000

 k-point    10 :       0.5100    0.2400    0.7500
  band No.  band energies     occupation 
      1      -2.2957      2.00000
      2      -2.1043      2.00000
      3       1.6522      2.00000
      4       1.7785      2.00000
      5       9.7208      0.00000
      6       9.7509      0.00000
      7      10.4563      0.00000
      8      10.7160      0.00000
      9      15.8147      0.00000
     10      16.1532      0.00000
     11      18.3069      0.00000
     12      18.6541      0.00000

 k-point    11 :       0.4900    0.2600    0.7500
  band No.  band energies     occupation 
      1      -2.2866      2.00000
      2      -2.1136      2.00000
      3       1.6446      2.00000
      4       1.7860      2.00000
      5       9.6160      0.00000
      6       9.8546      0.00000
      7      10.5643      0.00000
      8      10.6093      0.00000
      9      15.8201      0.00000
     10      16.1435      0.00000
     11      18.3116      0.00000
     12      18.6542      0.00000

 k-point    12 :       0.4900    0.2500    0.7400
  band No.  band energies     occupation 
      1      -2.2905      2.00000
      2      -2.1083      2.00000
      3       1.6454      2.00000
      4       1.7793      2.00000
      5       9.7341      0.00000
      6       9.8680      0.00000
      7      10.4410      0.00000
      8      10.5940      0.00000
      9      15.8174      0.00000
     10      16.1485      0.00000
     11      18.3103      0.00000
     12      18.6556      0.00000

 k-point    13 :       0.5100    0.2500    0.7600
  band No.  band energies     occupation 
      1      -2.2905      2.00000
      2      -2.1083      2.00000
      3       1.6454      2.00000
      4       1.7793      2.00000
      5       9.7341      0.00000
      6       9.8680      0.00000
      7      10.4410      0.00000
      8      10.5940      0.00000
      9      15.8174      0.00000
     10      16.1485      0.00000
     11      18.3103      0.00000
     12      18.6556      0.00000

 k-point    14 :       0.5100    0.2500    0.7400
  band No.  band energies     occupation 
      1      -2.2866      2.00000
      2      -2.1136      2.00000
      3       1.6446      2.00000
      4       1.7860      2.00000
      5       9.6160      0.00000
      6       9.8546      0.00000
      7      10.5643      0.00000
      8      10.6093      0.00000
      9      15.8201      0.00000
     10      16.1435      0.00000
     11      18.3116      0.00000
     12      18.6542      0.00000

 k-point    15 :       0.4900    0.2500    0.7600
  band No.  band energies     occupation 
      1      -2.2957      2.00000
      2      -2.1043      2.00000
      3       1.6522      2.00000
      4       1.7785      2.00000
      5       9.7208      0.00000
      6       9.7509      0.00000
      7      10.4563      0.00000
      8      10.7160      0.00000
      9      15.8147      0.00000
     10      16.1532      0.00000
     11      18.3069      0.00000
     12      18.6541      0.00000

 k-point    16 :       0.5000    0.2400    0.7400
  band No.  band energies     occupation 
      1      -2.1996      2.00000
      2      -2.1996      2.00000
      3       1.7124      2.00000
      4       1.7124      2.00000
      5       9.7408      0.00000
      6       9.7408      0.00000
      7      10.5777      0.00000
      8      10.5777      0.00000
      9      15.9956      0.00000
     10      15.9956      0.00000
     11      18.4705      0.00000
     12      18.4705      0.00000

 k-point    17 :       0.5000    0.2600    0.7600
  band No.  band energies     occupation 
      1      -2.1996      2.00000
      2      -2.1996      2.00000
      3       1.7124      2.00000
      4       1.7124      2.00000
      5       9.7408      0.00000
      6       9.7408      0.00000
      7      10.5777      0.00000
      8      10.5777      0.00000
      9      15.9956      0.00000
     10      15.9956      0.00000
     11      18.4705      0.00000
     12      18.4705      0.00000

 k-point    18 :       0.5000    0.2600    0.7400
  band No.  band energies     occupation 
      1      -2.3284      2.00000
      2      -2.0712      2.00000
      3       1.6209      2.00000
      4       1.8097      2.00000
      5       9.7020      0.00000
      6       9.8757      0.00000
      7      10.4326      0.00000
      8      10.6341      0.00000
      9      15.7347      0.00000
     10      16.2071      0.00000
     11      18.2465      0.00000
     12      18.7403      0.00000

 k-point    19 :       0.5000    0.2400    0.7600
  band No.  band energies     occupation 
      1      -2.3284      2.00000
      2      -2.0712      2.00000
      3       1.6209      2.00000
      4       1.8097      2.00000
      5       9.7020      0.00000
      6       9.8757      0.00000
      7      10.4326      0.00000
      8      10.6341      0.00000
      9      15.7347      0.00000
     10      16.2071      0.00000
     11      18.2465      0.00000
     12      18.7403      0.00000


--------------------------------------------------------------------------------------------------------


 soft charge-density along one line, spin component           1
         0         1         2         3         4         5         6         7         8         9
x     8.4836    0.0000    1.9177    0.0000    0.2576    0.0000    0.0678    0.0000    0.0041    0.0000
x    -0.0009   -0.0000   -0.0005   -0.0000    0.0000   -0.0000    0.0000    0.0000   -0.0000   -0.0000
x    -0.0000   -0.0000   -0.0000   -0.0000    0.0000    0.0000
y     8.4836    0.0000    1.9177    0.0000    0.2576    0.0000    0.0678    0.0000    0.0041    0.0000
y    -0.0009   -0.0000   -0.0005   -0.0000    0.0000   -0.0000    0.0000    0.0000   -0.0000   -0.0000
y    -0.0000   -0.0000   -0.0000   -0.0000    0.0000    0.0000
z     8.4836    0.0000    1.9177    0.0000    0.2576    0.0000    0.0678    0.0000    0.0041    0.0000
z    -0.0009   -0.0000   -0.0005   -0.0000    0.0000   -0.0000    0.0000    0.0000   -0.0000   -0.0000
z    -0.0000   -0.0000   -0.0000   -0.0000    0.0000    0.0000
 total charge-density along one line
x     8.0000    0.0000    1.6247    0.0000    0.2579    0.0000    0.1390    0.0000    0.0237   -0.0000
x    -0.0021   -0.0000   -0.0005   -0.0000   -0.0003   -0.0000    0.0000   -0.0000    0.0001   -0.0000
x    -0.0000   -0.0000    0.0000    0.0000   -0.0000    0.0000    0.0000    0.0000    0.0000    0.0000
x     0.0000    0.0000   -0.0000   -0.0000   -0.0000   -0.0000    0.0000    0.0000   -0.0000   -0.0000
x     0.0000   -0.0000   -0.0000    0.0000   -0.0000    0.0000   -0.0000   -0.0000    0.0000    0.0000
y     8.0000    0.0000    1.6247    0.0000    0.2579    0.0000    0.1390    0.0000    0.0237   -0.0000
y    -0.0021   -0.0000   -0.0005    0.0000   -0.0003   -0.0000    0.0000   -0.0000    0.0001    0.0000
y    -0.0000   -0.0000    0.0000   -0.0000   -0.0000   -0.0000    0.0000   -0.0000    0.0000    0.0000
y     0.0000    0.0000   -0.0000    0.0000   -0.0000   -0.0000    0.0000    0.0000   -0.0000   -0.0000
y     0.0000   -0.0000   -0.0000    0.0000   -0.0000    0.0000   -0.0000    0.0000    0.0000   -0.0000
z     8.0000    0.0000    1.6247    0.0000    0.2579    0.0000    0.1390    0.0000    0.0237   -0.0000
z    -0.0021   -0.0000   -0.0005   -0.0000   -0.0003   -0.0000    0.0000   -0.0000    0.0001   -0.0000
z    -0.0000   -0.0000    0.0000   -0.0000   -0.0000   -0.0000    0.0000   -0.0000   -0.0000   -0.0000
z     0.0000   -0.0000   -0.0000    0.0000   -0.0000   -0.0000    0.0000   -0.0000   -0.0000   -0.0000
z     0.0000   -0.0000   -0.0000   -0.0000    0.0000    0.0000   -0.0000    0.0000    0.0000   -0.0000
 
 pseudopotential strength for first ion, spin component:           1
 18.483  25.788   0.000   0.000   0.000   0.000   0.000   0.000
 25.788  35.984   0.000   0.000   0.000   0.000   0.000   0.000
  0.000   0.000   4.183  -0.000  -0.000   7.796  -0.000  -0.000
  0.000   0.000  -0.000   4.183  -0.000  -0.000   7.796  -0.000
  0.000   0.000  -0.000  -0.000   4.183  -0.000  -0.000   7.796
  0.000   0.000   7.796  -0.000  -0.000  14.539  -0.000  -0.000
  0.000   0.000  -0.000   7.796  -0.000  -0.000  14.539  -0.000
  0.000   0.000  -0.000  -0.000   7.796  -0.000  -0.000  14.539
 total augmentation occupancy for first ion, spin component:           1
  4.595  -1.313   0.000   0.000  -0.000   0.000  -0.000  -0.000
 -1.313   0.376  -0.000  -0.000   0.000   0.000  -0.000   0.000
  0.000   0.000   2.995   0.000   0.000  -0.738   0.000  -0.000
  0.000  -0.000  -0.000   2.995   0.000   0.000  -0.738  -0.000
 -0.000  -0.000   0.000   0.000   2.995  -0.000  -0.000  -0.738
  0.000  -0.000  -0.738   0.000  -0.000   0.185  -0.000   0.000
  0.000   0.000   0.000  -0.738  -0.000  -0.000   0.185   0.000
  0.000   0.000  -0.000  -0.000  -0.738   0.000   0.000   0.185


------------------------ aborting loop because EDIFF is reached ----------------------------------------


 


 total charge     
 
# of ion       s       p       d       tot
------------------------------------------
    1        0.826   0.827   0.000   1.653
    2        0.826   0.827   0.000   1.653
--------------------------------------------------
tot          1.653   1.654   0.000   3.307
 
    CHARGE:  cpu time    0.0149: real time    0.0149
    FORLOC:  cpu time    0.0013: real time    0.0013
    FORNL :  cpu time    0.0191: real time    0.0191
    STRESS:  cpu time    0.0547: real time    0.0547
    FORCOR:  cpu time    0.0311: real time    0.0311
    FORHAR:  cpu time    0.0062: real time    0.0062
    MIXING:  cpu time    0.0013: real time    0.0013
    OFIELD:  cpu time    0.0000: real time    0.0000

  FORCE on cell =-STRESS in cart. coord.  units (eV):
  Direction    XX          YY          ZZ          XY          YZ          ZX
  --------------------------------------------------------------------------------------
  Alpha Z     3.33881     3.33881     3.33881
  Ewald     -75.99608   -75.99616   -75.99607     0.00001    -0.00000     0.00000
  Hartree     4.18698     4.18698     4.18698     0.00000     0.00000     0.00000
  E(xc)     -24.86303   -24.86303   -24.86303    -0.00000    -0.00000    -0.00000
  Local     -27.36397   -27.36396   -27.36395     0.00000     0.00001     0.00001
  n-local    77.99814    78.56409    79.13058    -0.80304     1.38928    -0.98301
  augment   -12.30948   -12.30948   -12.30950    -0.00000    -0.00001    -0.00001
  Kinetic    51.40847    50.01458    48.61588     1.96659    -3.41375     2.40783
  Fock        0.00000     0.00000     0.00000     0.00000     0.00000     0.00000
  -------------------------------------------------------------------------------------
  Total      -4.42954    -4.42954    -4.42954    -0.00000    -0.00000    -0.00000
  in kB    -175.97291  -175.97305  -175.97286    -0.00000    -0.00000    -0.00000
  external pressure =     -175.97 kB  Pullay stress =        0.00 kB


 VOLUME and BASIS-vectors are now :
 -----------------------------------------------------------------------------
  energy-cutoff  :      600.00
  volume of cell :       40.33
      direct lattice vectors                 reciprocal lattice vectors
     3.333573000  0.000000000  1.924639000     0.299978432 -0.106058350  0.000000000
     1.111191000  3.142924000  1.924639000     0.000000000  0.318175050  0.000000000
     0.000000000  0.000000000  3.849278000    -0.149989216 -0.106058350  0.259788979

  length of vectors
     3.849278403  3.849279412  3.849278000     0.318175161  0.318175050  0.318175190


 FORCES acting on ions
    electron-ion (+dipol)            ewald-force                    non-local-force                 convergence-correction
 -----------------------------------------------------------------------------------------------
   0.465E-05 0.213E-04 0.233E-06   -.892E-05 -.418E-04 -.429E-15   -.181E-18 0.205E-18 -.509E-19   0.106E-07 0.463E-07 0.141E-08
   -.465E-05 -.213E-04 -.233E-06   0.892E-05 0.418E-04 0.408E-15   0.596E-19 -.201E-18 0.204E-18   -.106E-07 -.463E-07 -.141E-08
 -----------------------------------------------------------------------------------------------
   -.655E-14 -.839E-14 -.185E-14   -.341E-15 0.468E-16 -.212E-16   -.121E-18 0.369E-20 0.153E-18   -.778E-15 -.651E-15 -.340E-14
 
 
 POSITION                                       TOTAL-FORCE (eV/Angst)
 -----------------------------------------------------------------------------------
      3.88917      2.75006      6.73624        -0.000000      0.000000      0.000000
      0.55560      0.39287      0.96232         0.000000     -0.000000     -0.000000
 -----------------------------------------------------------------------------------
    total drift:                               -0.000000     -0.000000     -0.000000


--------------------------------------------------------------------------------------------------------



  FREE ENERGIE OF THE ION-ELECTRON SYSTEM (eV)
  ---------------------------------------------------
  free  energy   TOTEN  =       -16.24146668 eV

  energy  without entropy=      -16.24146668  energy(sigma->0) =      -16.24146668
 


--------------------------------------------------------------------------------------------------------


    POTLOK:  cpu time    0.0328: real time    0.0328


--------------------------------------------------------------------------------------------------------


 writing wavefunctions
     LOOP+:  cpu time    3.2773: real time    8.0621
    4ORBIT:  cpu time    0.0000: real time    0.0000
 


 total charge     
 
# of ion       s       p       d       tot
------------------------------------------
    1        0.826   0.827   0.000   1.653
    2        0.826   0.827   0.000   1.653
--------------------------------------------------
tot          1.653   1.654   0.000   3.307
 

 total amount of memory used by VASP MPI-rank0    42681. kBytes
=======================================================================

   base      :      30000. kBytes
   nonl-proj :       1682. kBytes
   grid      :       6018. kBytes
   one-center:          6. kBytes
   wavefun   :       4975. kBytes
 
  
  
 General timing and accounting informations for this job:
 ========================================================
  
                  Total CPU time used (sec):        3.542
                            User time (sec):        3.481
                          System time (sec):        0.061
                         Elapsed time (sec):        8.316
  
                   Maximum memory used (kb):       30180.
                   Average memory used (kb):           0.
  
                          Minor page faults:        14051
                          Major page faults:           12
                 Voluntary context switches:           28
